DMF comparator n4
 4173
    1GR      C1    1   0.000   0.000   1.900  0.0000  0.0000  0.0000
    1GR      C2    2   0.142   0.000   1.900  0.0000  0.0000  0.0000
    1GR      C3    3   0.213   0.123   1.900  0.0000  0.0000  0.0000
    1GR      C4    4   0.354   0.123   1.900  0.0000  0.0000  0.0000
    1GR      C5    5   0.000   0.246   1.900  0.0000  0.0000  0.0000
    1GR      C6    6   0.142   0.246   1.900  0.0000  0.0000  0.0000
    1GR      C7    7   0.213   0.368   1.900  0.0000  0.0000  0.0000
    1GR      C8    8   0.354   0.368   1.900  0.0000  0.0000  0.0000
    1GR      C9    9   0.000   0.491   1.900  0.0000  0.0000  0.0000
    1GR     C10   10   0.142   0.491   1.900  0.0000  0.0000  0.0000
    1GR     C11   11   0.213   0.614   1.900  0.0000  0.0000  0.0000
    1GR     C12   12   0.354   0.614   1.900  0.0000  0.0000  0.0000
    1GR     C13   13   0.000   0.737   1.900  0.0000  0.0000  0.0000
    1GR     C14   14   0.142   0.737   1.900  0.0000  0.0000  0.0000
    1GR     C15   15   0.213   0.860   1.900  0.0000  0.0000  0.0000
    1GR     C16   16   0.354   0.860   1.900  0.0000  0.0000  0.0000
    1GR     C17   17   0.000   0.982   1.900  0.0000  0.0000  0.0000
    1GR     C18   18   0.142   0.982   1.900  0.0000  0.0000  0.0000
    1GR     C19   19   0.213   1.105   1.900  0.0000  0.0000  0.0000
    1GR     C20   20   0.354   1.105   1.900  0.0000  0.0000  0.0000
    1GR     C21   21   0.000   1.228   1.900  0.0000  0.0000  0.0000
    1GR     C22   22   0.142   1.228   1.900  0.0000  0.0000  0.0000
    1GR     C23   23   0.213   1.351   1.900  0.0000  0.0000  0.0000
    1GR     C24   24   0.354   1.351   1.900  0.0000  0.0000  0.0000
    1GR     C25   25   0.000   1.474   1.900  0.0000  0.0000  0.0000
    1GR     C26   26   0.142   1.474   1.900  0.0000  0.0000  0.0000
    1GR     C27   27   0.213   1.596   1.900  0.0000  0.0000  0.0000
    1GR     C28   28   0.354   1.596   1.900  0.0000  0.0000  0.0000
    1GR     C29   29   0.000   1.719   1.900  0.0000  0.0000  0.0000
    1GR     C30   30   0.142   1.719   1.900  0.0000  0.0000  0.0000
    1GR     C31   31   0.213   1.842   1.900  0.0000  0.0000  0.0000
    1GR     C32   32   0.354   1.842   1.900  0.0000  0.0000  0.0000
    1GR     C33   33   0.000   1.965   1.900  0.0000  0.0000  0.0000
    1GR     C34   34   0.142   1.965   1.900  0.0000  0.0000  0.0000
    1GR     C35   35   0.213   2.088   1.900  0.0000  0.0000  0.0000
    1GR     C36   36   0.354   2.088   1.900  0.0000  0.0000  0.0000
    1GR     C37   37   0.000   2.210   1.900  0.0000  0.0000  0.0000
    1GR     C38   38   0.142   2.210   1.900  0.0000  0.0000  0.0000
    1GR     C39   39   0.213   2.333   1.900  0.0000  0.0000  0.0000
    1GR     C40   40   0.354   2.333   1.900  0.0000  0.0000  0.0000
    1GR     C41   41   0.000   2.456   1.900  0.0000  0.0000  0.0000
    1GR     C42   42   0.142   2.456   1.900  0.0000  0.0000  0.0000
    1GR     C43   43   0.213   2.579   1.900  0.0000  0.0000  0.0000
    1GR     C44   44   0.354   2.579   1.900  0.0000  0.0000  0.0000
    1GR     C45   45   0.000   2.702   1.900  0.0000  0.0000  0.0000
    1GR     C46   46   0.142   2.702   1.900  0.0000  0.0000  0.0000
    1GR     C47   47   0.213   2.824   1.900  0.0000  0.0000  0.0000
    1GR     C48   48   0.354   2.824   1.900  0.0000  0.0000  0.0000
    1GR     C49   49   0.000   2.947   1.900  0.0000  0.0000  0.0000
    1GR     C50   50   0.142   2.947   1.900  0.0000  0.0000  0.0000
    1GR     C51   51   0.213   3.070   1.900  0.0000  0.0000  0.0000
    1GR     C52   52   0.354   3.070   1.900  0.0000  0.0000  0.0000
    1GR     C53   53   0.000   3.193   1.900  0.0000  0.0000  0.0000
    1GR     C54   54   0.142   3.193   1.900  0.0000  0.0000  0.0000
    1GR     C55   55   0.213   3.316   1.900  0.0000  0.0000  0.0000
    1GR     C56   56   0.354   3.316   1.900  0.0000  0.0000  0.0000
    1GR     C57   57   0.425   0.000   1.900  0.0000  0.0000  0.0000
    1GR     C58   58   0.567   0.000   1.900  0.0000  0.0000  0.0000
    1GR     C59   59   0.638   0.123   1.900  0.0000  0.0000  0.0000
    1GR     C60   60   0.780   0.123   1.900  0.0000  0.0000  0.0000
    1GR     C61   61   0.425   0.246   1.900  0.0000  0.0000  0.0000
    1GR     C62   62   0.567   0.246   1.900  0.0000  0.0000  0.0000
    1GR     C63   63   0.638   0.368   1.900  0.0000  0.0000  0.0000
    1GR     C64   64   0.780   0.368   1.900  0.0000  0.0000  0.0000
    1GR     C65   65   0.425   0.491   1.900  0.0000  0.0000  0.0000
    1GR     C66   66   0.567   0.491   1.900  0.0000  0.0000  0.0000
    1GR     C67   67   0.638   0.614   1.900  0.0000  0.0000  0.0000
    1GR     C68   68   0.780   0.614   1.900  0.0000  0.0000  0.0000
    1GR     C69   69   0.425   0.737   1.900  0.0000  0.0000  0.0000
    1GR     C70   70   0.567   0.737   1.900  0.0000  0.0000  0.0000
    1GR     C71   71   0.638   0.860   1.900  0.0000  0.0000  0.0000
    1GR     C72   72   0.780   0.860   1.900  0.0000  0.0000  0.0000
    1GR     C73   73   0.425   0.982   1.900  0.0000  0.0000  0.0000
    1GR     C74   74   0.567   0.982   1.900  0.0000  0.0000  0.0000
    1GR     C75   75   0.638   1.105   1.900  0.0000  0.0000  0.0000
    1GR     C76   76   0.780   1.105   1.900  0.0000  0.0000  0.0000
    1GR     C77   77   0.425   1.228   1.900  0.0000  0.0000  0.0000
    1GR     C78   78   0.567   1.228   1.900  0.0000  0.0000  0.0000
    1GR     C79   79   0.638   1.351   1.900  0.0000  0.0000  0.0000
    1GR     C80   80   0.780   1.351   1.900  0.0000  0.0000  0.0000
    1GR     C81   81   0.425   1.474   1.900  0.0000  0.0000  0.0000
    1GR     C82   82   0.567   1.474   1.900  0.0000  0.0000  0.0000
    1GR     C83   83   0.638   1.596   1.900  0.0000  0.0000  0.0000
    1GR     C84   84   0.780   1.596   1.900  0.0000  0.0000  0.0000
    1GR     C85   85   0.425   1.719   1.900  0.0000  0.0000  0.0000
    1GR     C86   86   0.567   1.719   1.900  0.0000  0.0000  0.0000
    1GR     C87   87   0.638   1.842   1.900  0.0000  0.0000  0.0000
    1GR     C88   88   0.780   1.842   1.900  0.0000  0.0000  0.0000
    1GR     C89   89   0.425   1.965   1.900  0.0000  0.0000  0.0000
    1GR     C90   90   0.567   1.965   1.900  0.0000  0.0000  0.0000
    1GR     C91   91   0.638   2.088   1.900  0.0000  0.0000  0.0000
    1GR     C92   92   0.780   2.088   1.900  0.0000  0.0000  0.0000
    1GR     C93   93   0.425   2.210   1.900  0.0000  0.0000  0.0000
    1GR     C94   94   0.567   2.210   1.900  0.0000  0.0000  0.0000
    1GR     C95   95   0.638   2.333   1.900  0.0000  0.0000  0.0000
    1GR     C96   96   0.780   2.333   1.900  0.0000  0.0000  0.0000
    1GR     C97   97   0.425   2.456   1.900  0.0000  0.0000  0.0000
    1GR     C98   98   0.567   2.456   1.900  0.0000  0.0000  0.0000
    1GR     C99   99   0.638   2.579   1.900  0.0000  0.0000  0.0000
    1GR    C100  100   0.780   2.579   1.900  0.0000  0.0000  0.0000
    1GR    C101  101   0.425   2.702   1.900  0.0000  0.0000  0.0000
    1GR    C102  102   0.567   2.702   1.900  0.0000  0.0000  0.0000
    1GR    C103  103   0.638   2.824   1.900  0.0000  0.0000  0.0000
    1GR    C104  104   0.780   2.824   1.900  0.0000  0.0000  0.0000
    1GR    C105  105   0.425   2.947   1.900  0.0000  0.0000  0.0000
    1GR    C106  106   0.567   2.947   1.900  0.0000  0.0000  0.0000
    1GR    C107  107   0.638   3.070   1.900  0.0000  0.0000  0.0000
    1GR    C108  108   0.780   3.070   1.900  0.0000  0.0000  0.0000
    1GR    C109  109   0.425   3.193   1.900  0.0000  0.0000  0.0000
    1GR    C110  110   0.567   3.193   1.900  0.0000  0.0000  0.0000
    1GR    C111  111   0.638   3.316   1.900  0.0000  0.0000  0.0000
    1GR    C112  112   0.780   3.316   1.900  0.0000  0.0000  0.0000
    1GR    C113  113   0.851   0.000   1.900  0.0000  0.0000  0.0000
    1GR    C114  114   0.993   0.000   1.900  0.0000  0.0000  0.0000
    1GR    C115  115   1.064   0.123   1.900  0.0000  0.0000  0.0000
    1GR    C116  116   1.205   0.123   1.900  0.0000  0.0000  0.0000
    1GR    C117  117   0.851   0.246   1.900  0.0000  0.0000  0.0000
    1GR    C118  118   0.993   0.246   1.900  0.0000  0.0000  0.0000
    1GR    C119  119   1.064   0.368   1.900  0.0000  0.0000  0.0000
    1GR    C120  120   1.205   0.368   1.900  0.0000  0.0000  0.0000
    1GR    C121  121   0.851   0.491   1.900  0.0000  0.0000  0.0000
    1GR    C122  122   0.993   0.491   1.900  0.0000  0.0000  0.0000
    1GR    C123  123   1.064   0.614   1.900  0.0000  0.0000  0.0000
    1GR    C124  124   1.205   0.614   1.900  0.0000  0.0000  0.0000
    1GR    C125  125   0.851   0.737   1.900  0.0000  0.0000  0.0000
    1GR    C126  126   0.993   0.737   1.900  0.0000  0.0000  0.0000
    1GR    C127  127   1.064   0.860   1.900  0.0000  0.0000  0.0000
    1GR    C128  128   1.205   0.860   1.900  0.0000  0.0000  0.0000
    1GR    C129  129   0.851   0.982   1.900  0.0000  0.0000  0.0000
    1GR    C130  130   0.993   0.982   1.900  0.0000  0.0000  0.0000
    1GR    C131  131   1.064   1.105   1.900  0.0000  0.0000  0.0000
    1GR    C132  132   1.205   1.105   1.900  0.0000  0.0000  0.0000
    1GR    C133  133   0.851   1.228   1.900  0.0000  0.0000  0.0000
    1GR    C134  134   0.993   1.228   1.900  0.0000  0.0000  0.0000
    1GR    C135  135   1.064   1.351   1.900  0.0000  0.0000  0.0000
    1GR    C136  136   1.205   1.351   1.900  0.0000  0.0000  0.0000
    1GR    C137  137   0.851   1.474   1.900  0.0000  0.0000  0.0000
    1GR    C138  138   0.993   1.474   1.900  0.0000  0.0000  0.0000
    1GR    C139  139   1.064   1.596   1.900  0.0000  0.0000  0.0000
    1GR    C140  140   1.205   1.596   1.900  0.0000  0.0000  0.0000
    1GR    C141  141   0.851   1.719   1.900  0.0000  0.0000  0.0000
    1GR    C142  142   0.993   1.719   1.900  0.0000  0.0000  0.0000
    1GR    C143  143   1.064   1.842   1.900  0.0000  0.0000  0.0000
    1GR    C144  144   1.205   1.842   1.900  0.0000  0.0000  0.0000
    1GR    C145  145   0.851   1.965   1.900  0.0000  0.0000  0.0000
    1GR    C146  146   0.993   1.965   1.900  0.0000  0.0000  0.0000
    1GR    C147  147   1.064   2.088   1.900  0.0000  0.0000  0.0000
    1GR    C148  148   1.205   2.088   1.900  0.0000  0.0000  0.0000
    1GR    C149  149   0.851   2.210   1.900  0.0000  0.0000  0.0000
    1GR    C150  150   0.993   2.210   1.900  0.0000  0.0000  0.0000
    1GR    C151  151   1.064   2.333   1.900  0.0000  0.0000  0.0000
    1GR    C152  152   1.205   2.333   1.900  0.0000  0.0000  0.0000
    1GR    C153  153   0.851   2.456   1.900  0.0000  0.0000  0.0000
    1GR    C154  154   0.993   2.456   1.900  0.0000  0.0000  0.0000
    1GR    C155  155   1.064   2.579   1.900  0.0000  0.0000  0.0000
    1GR    C156  156   1.205   2.579   1.900  0.0000  0.0000  0.0000
    1GR    C157  157   0.851   2.702   1.900  0.0000  0.0000  0.0000
    1GR    C158  158   0.993   2.702   1.900  0.0000  0.0000  0.0000
    1GR    C159  159   1.064   2.824   1.900  0.0000  0.0000  0.0000
    1GR    C160  160   1.205   2.824   1.900  0.0000  0.0000  0.0000
    1GR    C161  161   0.851   2.947   1.900  0.0000  0.0000  0.0000
    1GR    C162  162   0.993   2.947   1.900  0.0000  0.0000  0.0000
    1GR    C163  163   1.064   3.070   1.900  0.0000  0.0000  0.0000
    1GR    C164  164   1.205   3.070   1.900  0.0000  0.0000  0.0000
    1GR    C165  165   0.851   3.193   1.900  0.0000  0.0000  0.0000
    1GR    C166  166   0.993   3.193   1.900  0.0000  0.0000  0.0000
    1GR    C167  167   1.064   3.316   1.900  0.0000  0.0000  0.0000
    1GR    C168  168   1.205   3.316   1.900  0.0000  0.0000  0.0000
    1GR    C169  169   1.276   0.000   1.900  0.0000  0.0000  0.0000
    1GR    C170  170   1.418   0.000   1.900  0.0000  0.0000  0.0000
    1GR    C171  171   1.489   0.123   1.900  0.0000  0.0000  0.0000
    1GR    C172  172   1.631   0.123   1.900  0.0000  0.0000  0.0000
    1GR    C173  173   1.276   0.246   1.900  0.0000  0.0000  0.0000
    1GR    C174  174   1.418   0.246   1.900  0.0000  0.0000  0.0000
    1GR    C175  175   1.489   0.368   1.900  0.0000  0.0000  0.0000
    1GR    C176  176   1.631   0.368   1.900  0.0000  0.0000  0.0000
    1GR    C177  177   1.276   0.491   1.900  0.0000  0.0000  0.0000
    1GR    C178  178   1.418   0.491   1.900  0.0000  0.0000  0.0000
    1GR    C179  179   1.489   0.614   1.900  0.0000  0.0000  0.0000
    1GR    C180  180   1.631   0.614   1.900  0.0000  0.0000  0.0000
    1GR    C181  181   1.276   0.737   1.900  0.0000  0.0000  0.0000
    1GR    C182  182   1.418   0.737   1.900  0.0000  0.0000  0.0000
    1GR    C183  183   1.489   0.860   1.900  0.0000  0.0000  0.0000
    1GR    C184  184   1.631   0.860   1.900  0.0000  0.0000  0.0000
    1GR    C185  185   1.276   0.982   1.900  0.0000  0.0000  0.0000
    1GR    C186  186   1.418   0.982   1.900  0.0000  0.0000  0.0000
    1GR    C187  187   1.489   1.105   1.900  0.0000  0.0000  0.0000
    1GR    C188  188   1.631   1.105   1.900  0.0000  0.0000  0.0000
    1GR    C189  189   1.276   1.228   1.900  0.0000  0.0000  0.0000
    1GR    C190  190   1.418   1.228   1.900  0.0000  0.0000  0.0000
    1GR    C191  191   1.489   1.351   1.900  0.0000  0.0000  0.0000
    1GR    C192  192   1.631   1.351   1.900  0.0000  0.0000  0.0000
    1GR    C193  193   1.276   1.474   1.900  0.0000  0.0000  0.0000
    1GR    C194  194   1.418   1.474   1.900  0.0000  0.0000  0.0000
    1GR    C195  195   1.489   1.596   1.900  0.0000  0.0000  0.0000
    1GR    C196  196   1.631   1.596   1.900  0.0000  0.0000  0.0000
    1GR    C197  197   1.276   1.719   1.900  0.0000  0.0000  0.0000
    1GR    C198  198   1.418   1.719   1.900  0.0000  0.0000  0.0000
    1GR    C199  199   1.489   1.842   1.900  0.0000  0.0000  0.0000
    1GR    C200  200   1.631   1.842   1.900  0.0000  0.0000  0.0000
    1GR    C201  201   1.276   1.965   1.900  0.0000  0.0000  0.0000
    1GR    C202  202   1.418   1.965   1.900  0.0000  0.0000  0.0000
    1GR    C203  203   1.489   2.088   1.900  0.0000  0.0000  0.0000
    1GR    C204  204   1.631   2.088   1.900  0.0000  0.0000  0.0000
    1GR    C205  205   1.276   2.210   1.900  0.0000  0.0000  0.0000
    1GR    C206  206   1.418   2.210   1.900  0.0000  0.0000  0.0000
    1GR    C207  207   1.489   2.333   1.900  0.0000  0.0000  0.0000
    1GR    C208  208   1.631   2.333   1.900  0.0000  0.0000  0.0000
    1GR    C209  209   1.276   2.456   1.900  0.0000  0.0000  0.0000
    1GR    C210  210   1.418   2.456   1.900  0.0000  0.0000  0.0000
    1GR    C211  211   1.489   2.579   1.900  0.0000  0.0000  0.0000
    1GR    C212  212   1.631   2.579   1.900  0.0000  0.0000  0.0000
    1GR    C213  213   1.276   2.702   1.900  0.0000  0.0000  0.0000
    1GR    C214  214   1.418   2.702   1.900  0.0000  0.0000  0.0000
    1GR    C215  215   1.489   2.824   1.900  0.0000  0.0000  0.0000
    1GR    C216  216   1.631   2.824   1.900  0.0000  0.0000  0.0000
    1GR    C217  217   1.276   2.947   1.900  0.0000  0.0000  0.0000
    1GR    C218  218   1.418   2.947   1.900  0.0000  0.0000  0.0000
    1GR    C219  219   1.489   3.070   1.900  0.0000  0.0000  0.0000
    1GR    C220  220   1.631   3.070   1.900  0.0000  0.0000  0.0000
    1GR    C221  221   1.276   3.193   1.900  0.0000  0.0000  0.0000
    1GR    C222  222   1.418   3.193   1.900  0.0000  0.0000  0.0000
    1GR    C223  223   1.489   3.316   1.900  0.0000  0.0000  0.0000
    1GR    C224  224   1.631   3.316   1.900  0.0000  0.0000  0.0000
    1GR    C225  225   1.702   0.000   1.900  0.0000  0.0000  0.0000
    1GR    C226  226   1.843   0.000   1.900  0.0000  0.0000  0.0000
    1GR    C227  227   1.914   0.123   1.900  0.0000  0.0000  0.0000
    1GR    C228  228   2.056   0.123   1.900  0.0000  0.0000  0.0000
    1GR    C229  229   1.702   0.246   1.900  0.0000  0.0000  0.0000
    1GR    C230  230   1.843   0.246   1.900  0.0000  0.0000  0.0000
    1GR    C231  231   1.914   0.368   1.900  0.0000  0.0000  0.0000
    1GR    C232  232   2.056   0.368   1.900  0.0000  0.0000  0.0000
    1GR    C233  233   1.702   0.491   1.900  0.0000  0.0000  0.0000
    1GR    C234  234   1.843   0.491   1.900  0.0000  0.0000  0.0000
    1GR    C235  235   1.914   0.614   1.900  0.0000  0.0000  0.0000
    1GR    C236  236   2.056   0.614   1.900  0.0000  0.0000  0.0000
    1GR    C237  237   1.702   0.737   1.900  0.0000  0.0000  0.0000
    1GR    C238  238   1.843   0.737   1.900  0.0000  0.0000  0.0000
    1GR    C239  239   1.914   0.860   1.900  0.0000  0.0000  0.0000
    1GR    C240  240   2.056   0.860   1.900  0.0000  0.0000  0.0000
    1GR    C241  241   1.702   0.982   1.900  0.0000  0.0000  0.0000
    1GR    C242  242   1.843   0.982   1.900  0.0000  0.0000  0.0000
    1GR    C243  243   1.914   1.105   1.900  0.0000  0.0000  0.0000
    1GR    C244  244   2.056   1.105   1.900  0.0000  0.0000  0.0000
    1GR    C245  245   1.702   1.228   1.900  0.0000  0.0000  0.0000
    1GR    C246  246   1.843   1.228   1.900  0.0000  0.0000  0.0000
    1GR    C247  247   1.914   1.351   1.900  0.0000  0.0000  0.0000
    1GR    C248  248   2.056   1.351   1.900  0.0000  0.0000  0.0000
    1GR    C249  249   1.702   1.474   1.900  0.0000  0.0000  0.0000
    1GR    C250  250   1.843   1.474   1.900  0.0000  0.0000  0.0000
    1GR    C251  251   1.914   1.596   1.900  0.0000  0.0000  0.0000
    1GR    C252  252   2.056   1.596   1.900  0.0000  0.0000  0.0000
    1GR    C253  253   1.702   1.719   1.900  0.0000  0.0000  0.0000
    1GR    C254  254   1.843   1.719   1.900  0.0000  0.0000  0.0000
    1GR    C255  255   1.914   1.842   1.900  0.0000  0.0000  0.0000
    1GR    C256  256   2.056   1.842   1.900  0.0000  0.0000  0.0000
    1GR    C257  257   1.702   1.965   1.900  0.0000  0.0000  0.0000
    1GR    C258  258   1.843   1.965   1.900  0.0000  0.0000  0.0000
    1GR    C259  259   1.914   2.088   1.900  0.0000  0.0000  0.0000
    1GR    C260  260   2.056   2.088   1.900  0.0000  0.0000  0.0000
    1GR    C261  261   1.702   2.210   1.900  0.0000  0.0000  0.0000
    1GR    C262  262   1.843   2.210   1.900  0.0000  0.0000  0.0000
    1GR    C263  263   1.914   2.333   1.900  0.0000  0.0000  0.0000
    1GR    C264  264   2.056   2.333   1.900  0.0000  0.0000  0.0000
    1GR    C265  265   1.702   2.456   1.900  0.0000  0.0000  0.0000
    1GR    C266  266   1.843   2.456   1.900  0.0000  0.0000  0.0000
    1GR    C267  267   1.914   2.579   1.900  0.0000  0.0000  0.0000
    1GR    C268  268   2.056   2.579   1.900  0.0000  0.0000  0.0000
    1GR    C269  269   1.702   2.702   1.900  0.0000  0.0000  0.0000
    1GR    C270  270   1.843   2.702   1.900  0.0000  0.0000  0.0000
    1GR    C271  271   1.914   2.824   1.900  0.0000  0.0000  0.0000
    1GR    C272  272   2.056   2.824   1.900  0.0000  0.0000  0.0000
    1GR    C273  273   1.702   2.947   1.900  0.0000  0.0000  0.0000
    1GR    C274  274   1.843   2.947   1.900  0.0000  0.0000  0.0000
    1GR    C275  275   1.914   3.070   1.900  0.0000  0.0000  0.0000
    1GR    C276  276   2.056   3.070   1.900  0.0000  0.0000  0.0000
    1GR    C277  277   1.702   3.193   1.900  0.0000  0.0000  0.0000
    1GR    C278  278   1.843   3.193   1.900  0.0000  0.0000  0.0000
    1GR    C279  279   1.914   3.316   1.900  0.0000  0.0000  0.0000
    1GR    C280  280   2.056   3.316   1.900  0.0000  0.0000  0.0000
    1GR    C281  281   2.127   0.000   1.900  0.0000  0.0000  0.0000
    1GR    C282  282   2.269   0.000   1.900  0.0000  0.0000  0.0000
    1GR    C283  283   2.340   0.123   1.900  0.0000  0.0000  0.0000
    1GR    C284  284   2.481   0.123   1.900  0.0000  0.0000  0.0000
    1GR    C285  285   2.127   0.246   1.900  0.0000  0.0000  0.0000
    1GR    C286  286   2.269   0.246   1.900  0.0000  0.0000  0.0000
    1GR    C287  287   2.340   0.368   1.900  0.0000  0.0000  0.0000
    1GR    C288  288   2.481   0.368   1.900  0.0000  0.0000  0.0000
    1GR    C289  289   2.127   0.491   1.900  0.0000  0.0000  0.0000
    1GR    C290  290   2.269   0.491   1.900  0.0000  0.0000  0.0000
    1GR    C291  291   2.340   0.614   1.900  0.0000  0.0000  0.0000
    1GR    C292  292   2.481   0.614   1.900  0.0000  0.0000  0.0000
    1GR    C293  293   2.127   0.737   1.900  0.0000  0.0000  0.0000
    1GR    C294  294   2.269   0.737   1.900  0.0000  0.0000  0.0000
    1GR    C295  295   2.340   0.860   1.900  0.0000  0.0000  0.0000
    1GR    C296  296   2.481   0.860   1.900  0.0000  0.0000  0.0000
    1GR    C297  297   2.127   0.982   1.900  0.0000  0.0000  0.0000
    1GR    C298  298   2.269   0.982   1.900  0.0000  0.0000  0.0000
    1GR    C299  299   2.340   1.105   1.900  0.0000  0.0000  0.0000
    1GR    C300  300   2.481   1.105   1.900  0.0000  0.0000  0.0000
    1GR    C301  301   2.127   1.228   1.900  0.0000  0.0000  0.0000
    1GR    C302  302   2.269   1.228   1.900  0.0000  0.0000  0.0000
    1GR    C303  303   2.340   1.351   1.900  0.0000  0.0000  0.0000
    1GR    C304  304   2.481   1.351   1.900  0.0000  0.0000  0.0000
    1GR    C305  305   2.127   1.474   1.900  0.0000  0.0000  0.0000
    1GR    C306  306   2.269   1.474   1.900  0.0000  0.0000  0.0000
    1GR    C307  307   2.340   1.596   1.900  0.0000  0.0000  0.0000
    1GR    C308  308   2.481   1.596   1.900  0.0000  0.0000  0.0000
    1GR    C309  309   2.127   1.719   1.900  0.0000  0.0000  0.0000
    1GR    C310  310   2.269   1.719   1.900  0.0000  0.0000  0.0000
    1GR    C311  311   2.340   1.842   1.900  0.0000  0.0000  0.0000
    1GR    C312  312   2.481   1.842   1.900  0.0000  0.0000  0.0000
    1GR    C313  313   2.127   1.965   1.900  0.0000  0.0000  0.0000
    1GR    C314  314   2.269   1.965   1.900  0.0000  0.0000  0.0000
    1GR    C315  315   2.340   2.088   1.900  0.0000  0.0000  0.0000
    1GR    C316  316   2.481   2.088   1.900  0.0000  0.0000  0.0000
    1GR    C317  317   2.127   2.210   1.900  0.0000  0.0000  0.0000
    1GR    C318  318   2.269   2.210   1.900  0.0000  0.0000  0.0000
    1GR    C319  319   2.340   2.333   1.900  0.0000  0.0000  0.0000
    1GR    C320  320   2.481   2.333   1.900  0.0000  0.0000  0.0000
    1GR    C321  321   2.127   2.456   1.900  0.0000  0.0000  0.0000
    1GR    C322  322   2.269   2.456   1.900  0.0000  0.0000  0.0000
    1GR    C323  323   2.340   2.579   1.900  0.0000  0.0000  0.0000
    1GR    C324  324   2.481   2.579   1.900  0.0000  0.0000  0.0000
    1GR    C325  325   2.127   2.702   1.900  0.0000  0.0000  0.0000
    1GR    C326  326   2.269   2.702   1.900  0.0000  0.0000  0.0000
    1GR    C327  327   2.340   2.824   1.900  0.0000  0.0000  0.0000
    1GR    C328  328   2.481   2.824   1.900  0.0000  0.0000  0.0000
    1GR    C329  329   2.127   2.947   1.900  0.0000  0.0000  0.0000
    1GR    C330  330   2.269   2.947   1.900  0.0000  0.0000  0.0000
    1GR    C331  331   2.340   3.070   1.900  0.0000  0.0000  0.0000
    1GR    C332  332   2.481   3.070   1.900  0.0000  0.0000  0.0000
    1GR    C333  333   2.127   3.193   1.900  0.0000  0.0000  0.0000
    1GR    C334  334   2.269   3.193   1.900  0.0000  0.0000  0.0000
    1GR    C335  335   2.340   3.316   1.900  0.0000  0.0000  0.0000
    1GR    C336  336   2.481   3.316   1.900  0.0000  0.0000  0.0000
    1GR    C337  337   2.552   0.000   1.900  0.0000  0.0000  0.0000
    1GR    C338  338   2.694   0.000   1.900  0.0000  0.0000  0.0000
    1GR    C339  339   2.765   0.123   1.900  0.0000  0.0000  0.0000
    1GR    C340  340   2.907   0.123   1.900  0.0000  0.0000  0.0000
    1GR    C341  341   2.552   0.246   1.900  0.0000  0.0000  0.0000
    1GR    C342  342   2.694   0.246   1.900  0.0000  0.0000  0.0000
    1GR    C343  343   2.765   0.368   1.900  0.0000  0.0000  0.0000
    1GR    C344  344   2.907   0.368   1.900  0.0000  0.0000  0.0000
    1GR    C345  345   2.552   0.491   1.900  0.0000  0.0000  0.0000
    1GR    C346  346   2.694   0.491   1.900  0.0000  0.0000  0.0000
    1GR    C347  347   2.765   0.614   1.900  0.0000  0.0000  0.0000
    1GR    C348  348   2.907   0.614   1.900  0.0000  0.0000  0.0000
    1GR    C349  349   2.552   0.737   1.900  0.0000  0.0000  0.0000
    1GR    C350  350   2.694   0.737   1.900  0.0000  0.0000  0.0000
    1GR    C351  351   2.765   0.860   1.900  0.0000  0.0000  0.0000
    1GR    C352  352   2.907   0.860   1.900  0.0000  0.0000  0.0000
    1GR    C353  353   2.552   0.982   1.900  0.0000  0.0000  0.0000
    1GR    C354  354   2.694   0.982   1.900  0.0000  0.0000  0.0000
    1GR    C355  355   2.765   1.105   1.900  0.0000  0.0000  0.0000
    1GR    C356  356   2.907   1.105   1.900  0.0000  0.0000  0.0000
    1GR    C357  357   2.552   1.228   1.900  0.0000  0.0000  0.0000
    1GR    C358  358   2.694   1.228   1.900  0.0000  0.0000  0.0000
    1GR    C359  359   2.765   1.351   1.900  0.0000  0.0000  0.0000
    1GR    C360  360   2.907   1.351   1.900  0.0000  0.0000  0.0000
    1GR    C361  361   2.552   1.474   1.900  0.0000  0.0000  0.0000
    1GR    C362  362   2.694   1.474   1.900  0.0000  0.0000  0.0000
    1GR    C363  363   2.765   1.596   1.900  0.0000  0.0000  0.0000
    1GR    C364  364   2.907   1.596   1.900  0.0000  0.0000  0.0000
    1GR    C365  365   2.552   1.719   1.900  0.0000  0.0000  0.0000
    1GR    C366  366   2.694   1.719   1.900  0.0000  0.0000  0.0000
    1GR    C367  367   2.765   1.842   1.900  0.0000  0.0000  0.0000
    1GR    C368  368   2.907   1.842   1.900  0.0000  0.0000  0.0000
    1GR    C369  369   2.552   1.965   1.900  0.0000  0.0000  0.0000
    1GR    C370  370   2.694   1.965   1.900  0.0000  0.0000  0.0000
    1GR    C371  371   2.765   2.088   1.900  0.0000  0.0000  0.0000
    1GR    C372  372   2.907   2.088   1.900  0.0000  0.0000  0.0000
    1GR    C373  373   2.552   2.210   1.900  0.0000  0.0000  0.0000
    1GR    C374  374   2.694   2.210   1.900  0.0000  0.0000  0.0000
    1GR    C375  375   2.765   2.333   1.900  0.0000  0.0000  0.0000
    1GR    C376  376   2.907   2.333   1.900  0.0000  0.0000  0.0000
    1GR    C377  377   2.552   2.456   1.900  0.0000  0.0000  0.0000
    1GR    C378  378   2.694   2.456   1.900  0.0000  0.0000  0.0000
    1GR    C379  379   2.765   2.579   1.900  0.0000  0.0000  0.0000
    1GR    C380  380   2.907   2.579   1.900  0.0000  0.0000  0.0000
    1GR    C381  381   2.552   2.702   1.900  0.0000  0.0000  0.0000
    1GR    C382  382   2.694   2.702   1.900  0.0000  0.0000  0.0000
    1GR    C383  383   2.765   2.824   1.900  0.0000  0.0000  0.0000
    1GR    C384  384   2.907   2.824   1.900  0.0000  0.0000  0.0000
    1GR    C385  385   2.552   2.947   1.900  0.0000  0.0000  0.0000
    1GR    C386  386   2.694   2.947   1.900  0.0000  0.0000  0.0000
    1GR    C387  387   2.765   3.070   1.900  0.0000  0.0000  0.0000
    1GR    C388  388   2.907   3.070   1.900  0.0000  0.0000  0.0000
    1GR    C389  389   2.552   3.193   1.900  0.0000  0.0000  0.0000
    1GR    C390  390   2.694   3.193   1.900  0.0000  0.0000  0.0000
    1GR    C391  391   2.765   3.316   1.900  0.0000  0.0000  0.0000
    1GR    C392  392   2.907   3.316   1.900  0.0000  0.0000  0.0000
    1GR    C393  393   2.978   0.000   1.900  0.0000  0.0000  0.0000
    1GR    C394  394   3.120   0.000   1.900  0.0000  0.0000  0.0000
    1GR    C395  395   3.191   0.123   1.900  0.0000  0.0000  0.0000
    1GR    C396  396   3.332   0.123   1.900  0.0000  0.0000  0.0000
    1GR    C397  397   2.978   0.246   1.900  0.0000  0.0000  0.0000
    1GR    C398  398   3.120   0.246   1.900  0.0000  0.0000  0.0000
    1GR    C399  399   3.191   0.368   1.900  0.0000  0.0000  0.0000
    1GR    C400  400   3.332   0.368   1.900  0.0000  0.0000  0.0000
    1GR    C401  401   2.978   0.491   1.900  0.0000  0.0000  0.0000
    1GR    C402  402   3.120   0.491   1.900  0.0000  0.0000  0.0000
    1GR    C403  403   3.191   0.614   1.900  0.0000  0.0000  0.0000
    1GR    C404  404   3.332   0.614   1.900  0.0000  0.0000  0.0000
    1GR    C405  405   2.978   0.737   1.900  0.0000  0.0000  0.0000
    1GR    C406  406   3.120   0.737   1.900  0.0000  0.0000  0.0000
    1GR    C407  407   3.191   0.860   1.900  0.0000  0.0000  0.0000
    1GR    C408  408   3.332   0.860   1.900  0.0000  0.0000  0.0000
    1GR    C409  409   2.978   0.982   1.900  0.0000  0.0000  0.0000
    1GR    C410  410   3.120   0.982   1.900  0.0000  0.0000  0.0000
    1GR    C411  411   3.191   1.105   1.900  0.0000  0.0000  0.0000
    1GR    C412  412   3.332   1.105   1.900  0.0000  0.0000  0.0000
    1GR    C413  413   2.978   1.228   1.900  0.0000  0.0000  0.0000
    1GR    C414  414   3.120   1.228   1.900  0.0000  0.0000  0.0000
    1GR    C415  415   3.191   1.351   1.900  0.0000  0.0000  0.0000
    1GR    C416  416   3.332   1.351   1.900  0.0000  0.0000  0.0000
    1GR    C417  417   2.978   1.474   1.900  0.0000  0.0000  0.0000
    1GR    C418  418   3.120   1.474   1.900  0.0000  0.0000  0.0000
    1GR    C419  419   3.191   1.596   1.900  0.0000  0.0000  0.0000
    1GR    C420  420   3.332   1.596   1.900  0.0000  0.0000  0.0000
    1GR    C421  421   2.978   1.719   1.900  0.0000  0.0000  0.0000
    1GR    C422  422   3.120   1.719   1.900  0.0000  0.0000  0.0000
    1GR    C423  423   3.191   1.842   1.900  0.0000  0.0000  0.0000
    1GR    C424  424   3.332   1.842   1.900  0.0000  0.0000  0.0000
    1GR    C425  425   2.978   1.965   1.900  0.0000  0.0000  0.0000
    1GR    C426  426   3.120   1.965   1.900  0.0000  0.0000  0.0000
    1GR    C427  427   3.191   2.088   1.900  0.0000  0.0000  0.0000
    1GR    C428  428   3.332   2.088   1.900  0.0000  0.0000  0.0000
    1GR    C429  429   2.978   2.210   1.900  0.0000  0.0000  0.0000
    1GR    C430  430   3.120   2.210   1.900  0.0000  0.0000  0.0000
    1GR    C431  431   3.191   2.333   1.900  0.0000  0.0000  0.0000
    1GR    C432  432   3.332   2.333   1.900  0.0000  0.0000  0.0000
    1GR    C433  433   2.978   2.456   1.900  0.0000  0.0000  0.0000
    1GR    C434  434   3.120   2.456   1.900  0.0000  0.0000  0.0000
    1GR    C435  435   3.191   2.579   1.900  0.0000  0.0000  0.0000
    1GR    C436  436   3.332   2.579   1.900  0.0000  0.0000  0.0000
    1GR    C437  437   2.978   2.702   1.900  0.0000  0.0000  0.0000
    1GR    C438  438   3.120   2.702   1.900  0.0000  0.0000  0.0000
    1GR    C439  439   3.191   2.824   1.900  0.0000  0.0000  0.0000
    1GR    C440  440   3.332   2.824   1.900  0.0000  0.0000  0.0000
    1GR    C441  441   2.978   2.947   1.900  0.0000  0.0000  0.0000
    1GR    C442  442   3.120   2.947   1.900  0.0000  0.0000  0.0000
    1GR    C443  443   3.191   3.070   1.900  0.0000  0.0000  0.0000
    1GR    C444  444   3.332   3.070   1.900  0.0000  0.0000  0.0000
    1GR    C445  445   2.978   3.193   1.900  0.0000  0.0000  0.0000
    1GR    C446  446   3.120   3.193   1.900  0.0000  0.0000  0.0000
    1GR    C447  447   3.191   3.316   1.900  0.0000  0.0000  0.0000
    1GR    C448  448   3.332   3.316   1.900  0.0000  0.0000  0.0000
    2PMMA   CX1  449   3.367   2.488   2.587 -0.1457  0.0646 -0.2649
    2PMMA   CA2  450   3.510   2.532   2.616  0.3397 -0.2093  0.3018
    2PMMA   CX3  451   3.586   2.404   2.666  0.0037  0.7005 -0.0636
    2PMMA    C4  452   3.548   2.598   2.483 -0.2387  0.6855  0.2433
    2PMMA    O5  453   3.514   2.711   2.446 -0.4596  0.6342  0.7671
    2PMMA   OS6  454   3.623   2.525   2.404 -0.3993 -0.1020  0.0927
    2PMMA   CE7  455   3.649   2.564   2.267  0.0565  0.4097 -0.1628
    2PMMA   CX8  456   3.506   2.653   2.723 -0.3706 -0.8758  0.2069
    2PMMA   CA9  457   3.639   2.715   2.793 -0.1959 -0.6710  0.7556
    2PMMA  CX10  458   3.749   2.739   2.686 -0.4667 -0.5410 -0.6730
    2PMMA   C11  459   3.681   2.596   2.881 -0.0806 -0.5711 -0.2251
    2PMMA   O12  460   3.781   2.533   2.860 -0.0471  0.1562 -0.3990
    2PMMA  OS13  461   3.615   2.578   3.000 -0.1422 -0.1491  0.1580
    2PMMA  CE14  462   3.667   2.506   3.105  0.7652 -0.4335  0.2330
    2PMMA  CX15  463   3.595   2.843   2.879  0.6961  0.3731 -0.1529
    2PMMA  CA16  464   3.689   2.921   2.976 -0.5598 -0.1604 -0.5559
    2PMMA  CX17  465   3.742   2.838   3.098 -0.6150 -0.7597  0.1737
    2PMMA   C18  466   3.812   2.958   2.896  0.0159  0.0417 -0.5546
    2PMMA   O19  467   3.925   2.922   2.920 -0.2250  0.2730 -0.6314
    2PMMA  OS20  468   3.785   3.050   2.796 -0.2918  0.2104 -0.4650
    2PMMA  CE21  469   3.888   3.114   2.716  0.5157  0.0917  0.1920
    2PMMA  CX22  470   3.615   3.045   3.025  0.2076 -0.2080 -0.5822
    2PMMA  CA23  471   3.690   3.139   3.139 -0.0375 -0.2789  0.1152
    2PMMA  CX24  472   3.632   3.287   3.126  0.1031 -0.1025 -0.4702
    2PMMA   C25  473   3.843   3.151   3.124 -0.0005  0.1474 -0.8493
    2PMMA   O26  474   3.888   3.211   3.029 -0.1492 -0.2251  0.1869
    2PMMA  OS27  475   3.920   3.131   3.233 -0.0342 -0.1274  0.1474
    2PMMA  CE28  476   4.058   3.171   3.238 -0.9199 -0.2189 -0.1912
    2PMMA  CX29  477   3.629   3.094   3.278 -0.5708 -0.0232  0.5483
    2PMMA  HC30  478   3.329   2.447   2.681  0.9704  0.4789  0.3777
    2PMMA  HC31  479   3.295   2.564   2.552  0.0754  0.1010 -0.6481
    2PMMA  HC32  480   3.370   2.401   2.520  0.3409  2.0256 -2.9114
    2PMMA  HC33  481   3.571   2.327   2.590  0.7244  0.3755  0.1254
    2PMMA  HC34  482   3.564   2.357   2.763 -1.3259 -1.1807 -1.2314
    2PMMA  HC35  483   3.693   2.425   2.666 -0.4772  3.3503  2.0434
    2PMMA  H136  484   3.564   2.610   2.217 -0.9442 -0.3146  0.8614
    2PMMA  H137  485   3.681   2.476   2.211 -1.5846 -0.6506  0.5388
    2PMMA  H138  486   3.733   2.635   2.269  0.5997 -0.2120  4.1548
    2PMMA  HC39  487   3.467   2.743   2.674 -1.3983 -0.0138  2.5215
    2PMMA  HC40  488   3.429   2.627   2.796 -0.1773  3.1509  1.9492
    2PMMA  HC41  489   3.781   2.646   2.637  1.5006  0.1581 -0.7563
    2PMMA  HC42  490   3.723   2.814   2.611 -0.5673 -1.0744 -1.1740
    2PMMA  HC43  491   3.843   2.780   2.724 -1.2153  1.4542 -0.9204
    2PMMA  H144  492   3.744   2.565   3.154  1.1423  1.7231 -2.7976
    2PMMA  H145  493   3.695   2.407   3.069 -0.9218 -1.2123  1.0173
    2PMMA  H146  494   3.588   2.479   3.176  0.9341  0.5027  0.7880
    2PMMA  HC47  495   3.568   2.914   2.800 -0.3987  0.5842  0.4066
    2PMMA  HC48  496   3.496   2.829   2.925 -0.7817  2.6526 -2.5052
    2PMMA  HC49  497   3.667   2.798   3.168 -0.3460 -0.0469  0.8735
    2PMMA  HC50  498   3.801   2.906   3.161 -2.0704  2.2079 -1.5712
    2PMMA  HC51  499   3.811   2.760   3.063  0.3752  0.4249 -0.5696
    2PMMA  H152  500   3.951   3.179   2.778 -0.1423  1.5424 -0.6548
    2PMMA  H153  501   3.851   3.182   2.640 -0.7181  0.2584  0.9368
    2PMMA  H154  502   3.957   3.045   2.666 -2.3261 -1.5865 -1.5463
    2PMMA  HC55  503   3.588   3.109   2.941 -1.4550 -1.8460 -1.3247
    2PMMA  HC56  504   3.520   3.014   3.071 -0.7691  2.2385 -0.8738
    2PMMA  HC57  505   3.674   3.353   3.203 -2.5959  0.2012  0.7778
    2PMMA  HC58  506   3.670   3.325   3.031 -2.6375 -1.0649 -1.9752
    2PMMA  HC59  507   3.524   3.303   3.129 -0.0505 -1.0586 -0.7810
    2PMMA  H160  508   4.097   3.132   3.332  1.0003  1.3340 -0.3315
    2PMMA  H161  509   4.089   3.273   3.218  2.0821 -0.9055  0.7758
    2PMMA  H162  510   4.104   3.111   3.159 -0.0676  1.6073 -1.0977
    2PMMA  HC63  511   3.681   3.002   3.303 -1.5504 -0.3049  1.5986
    2PMMA  HC64  512   3.646   3.163   3.362 -1.3410  0.4478  0.3251
    2PMMA  HC65  513   3.520   3.080   3.274 -0.5564 -0.1873  0.7219
    3DMF     C1  514   0.731   2.918   0.205  0.6788 -0.5663  0.1283
    3DMF     N1  515   0.753   3.056   0.150 -0.0004 -0.0882 -0.7562
    3DMF     C2  516   0.878   3.082   0.068  0.2691 -0.0504 -0.7613
    3DMF     C3  517   0.674   3.166   0.195 -0.0675  0.5646 -0.5211
    3DMF     O1  518   0.584   3.147   0.275 -0.4270  0.2853 -0.6211
    3DMF     H1  519   0.693   2.915   0.308  0.1846 -0.3675 -0.0454
    3DMF     H2  520   0.826   2.864   0.196  1.7151  1.2659 -0.2999
    3DMF     H3  521   0.660   2.866   0.140 -2.5850  1.9247  1.5366
    3DMF     H4  522   0.893   3.015  -0.018 -0.8826 -1.5262  0.1736
    3DMF     H5  523   0.971   3.060   0.122 -0.2421  0.5423  0.3578
    3DMF     H6  524   0.888   3.186   0.035 -1.1982  0.8449  1.5022
    3DMF     H7  525   0.694   3.265   0.152  1.4111  0.6804  0.4089
    4DMF     C1  526   1.957   0.784   2.332 -0.1718 -0.7291  0.1274
    4DMF     N1  527   2.093   0.823   2.288  0.9064 -0.6653 -0.3986
    4DMF     C2  528   2.194   0.713   2.261  0.2954  0.3142 -0.7950
    4DMF     C3  529   2.118   0.957   2.243  0.1022 -0.2671  0.4759
    4DMF     O1  530   2.039   1.046   2.268 -0.1887  0.1323 -0.4113
    4DMF     H1  531   1.889   0.765   2.247 -1.7545 -1.2352  1.4766
    4DMF     H2  532   1.917   0.868   2.389  1.2463  0.8032 -1.1090
    4DMF     H3  533   1.945   0.707   2.409  1.3284  1.5645  2.7027
    4DMF     H4  534   2.184   0.646   2.347  2.1648  1.9353  0.7331
    4DMF     H5  535   2.289   0.767   2.259 -0.6407  2.0798  0.7352
    4DMF     H6  536   2.178   0.665   2.164  0.2756  3.6511 -2.4885
    4DMF     H7  537   2.208   0.979   2.183 -0.2003 -0.1153  0.0746
    5DMF     C1  538   2.425   0.887   0.755  0.0864  0.8836  0.0152
    5DMF     N1  539   2.513   1.007   0.744  0.0387 -0.1489 -0.1619
    5DMF     C2  540   2.630   1.015   0.840  0.9167 -0.6292 -0.4423
    5DMF     C3  541   2.497   1.094   0.643 -0.0587  0.3001 -0.0398
    5DMF     O1  542   2.405   1.093   0.560 -0.3755  0.1743 -0.0177
    5DMF     H1  543   2.461   0.829   0.840 -2.0320  1.1033  1.0760
    5DMF     H2  544   2.430   0.820   0.668 -0.7024  0.1045  0.5683
    5DMF     H3  545   2.325   0.923   0.780 -0.4320  0.4069 -1.3461
    5DMF     H4  546   2.650   1.118   0.873  1.7951 -1.2101  0.8643
    5DMF     H5  547   2.721   0.976   0.793  0.5997  0.3323 -1.8976
    5DMF     H6  548   2.604   0.961   0.932  1.7181 -0.0822  0.1118
    5DMF     H7  549   2.572   1.175   0.650  0.8555 -0.4493 -0.9148
    6DMF     C1  550   1.308   0.181   2.627  0.0354 -0.6270 -0.1562
    6DMF     N1  551   1.430   0.205   2.713  0.3183  0.2175 -0.7423
    6DMF     C2  552   1.453   0.118   2.833 -0.0166  0.0522  0.0810
    6DMF     C3  553   1.516   0.317   2.686 -0.4409  0.7990 -0.3144
    6DMF     O1  554   1.493   0.396   2.598 -0.1921 -0.0572  0.0716
    6DMF     H1  555   1.239   0.266   2.613  0.7943  0.3263  1.7647
    6DMF     H2  556   1.268   0.083   2.655 -1.7460 -0.1492 -0.8968
    6DMF     H3  557   1.352   0.172   2.527 -1.2143 -2.0091 -0.5948
    6DMF     H4  558   1.429   0.168   2.927  1.1818  1.0810 -0.1470
    6DMF     H5  559   1.558   0.090   2.848 -0.2070 -0.8101 -0.1851
    6DMF     H6  560   1.396   0.027   2.813  1.9873 -1.2205 -0.0281
    6DMF     H7  561   1.597   0.324   2.760 -1.3353 -1.0372  0.8795
    7DMF     C1  562   2.829   0.440   3.365  0.0237 -0.3616 -1.0673
    7DMF     N1  563   2.835   0.573   3.442  0.4095  0.2025  0.5739
    7DMF     C2  564   2.773   0.574   3.578  0.3875 -0.0077  0.3438
    7DMF     C3  565   2.873   0.696   3.380  0.0701  0.1552  0.4762
    7DMF     O1  566   2.908   0.700   3.259 -0.1409 -0.6140 -0.0242
    7DMF     H1  567   2.893   0.367   3.416 -0.4891 -0.3714 -0.4128
    7DMF     H2  568   2.867   0.450   3.263  2.2776 -1.9528 -0.4229
    7DMF     H3  569   2.725   0.405   3.354  0.4994 -2.6791  1.3368
    7DMF     H4  570   2.683   0.637   3.572  1.3138  1.3948  1.0044
    7DMF     H5  571   2.847   0.604   3.653  3.1297 -0.6000 -2.0080
    7DMF     H6  572   2.735   0.475   3.608 -0.4833 -0.6329 -2.6639
    7DMF     H7  573   2.874   0.785   3.445 -0.2407  1.7520 -1.6631
    8DMF     C1  574   2.242   1.424   3.066 -0.1497 -0.5849  0.1032
    8DMF     N1  575   2.110   1.483   3.078  0.0057  0.4678 -0.6418
    8DMF     C2  576   1.994   1.412   3.030 -0.2995 -0.0579 -0.0982
    8DMF     C3  577   2.094   1.591   3.161  0.4628 -0.1904  0.4675
    8DMF     O1  578   2.187   1.644   3.220  0.6338  0.2607  0.1385
    8DMF     H1  579   2.281   1.442   2.965  0.2712 -0.7925  0.2281
    8DMF     H2  580   2.238   1.318   3.092  1.5188 -0.9749 -1.2023
    8DMF     H3  581   2.314   1.478   3.128  2.9746 -1.7416 -2.4184
    8DMF     H4  582   1.987   1.319   3.087  1.8458  0.9708  1.9392
    8DMF     H5  583   1.996   1.402   2.921  0.2350  0.8118 -0.1746
    8DMF     H6  584   1.905   1.474   3.044 -1.9742 -2.2693 -0.8228
    8DMF     H7  585   1.992   1.632   3.156  1.4720  2.2813 -0.9016
    9DMF     C1  586   1.536   0.877   2.254  0.8837 -0.1656  0.0191
    9DMF     N1  587   1.579   1.016   2.258 -0.7249 -0.0210 -0.8610
    9DMF     C2  588   1.718   1.047   2.281 -0.7902 -0.2901  0.1485
    9DMF     C3  589   1.488   1.120   2.286 -0.6170  0.2232 -0.4680
    9DMF     O1  590   1.373   1.095   2.316 -0.7808  0.5442  0.0794
    9DMF     H1  591   1.512   0.846   2.357  2.2237 -0.0688  0.3636
    9DMF     H2  592   1.621   0.815   2.222  0.9754 -0.4592  0.8059
    9DMF     H3  593   1.456   0.867   2.180  0.9903  3.1412 -0.6124
    9DMF     H4  594   1.733   1.145   2.234 -0.9164 -0.7009 -0.7557
    9DMF     H5  595   1.775   0.969   2.230 -0.4702 -0.7514  1.1992
    9DMF     H6  596   1.756   1.039   2.384 -1.4937  0.4427  0.4657
    9DMF     H7  597   1.541   1.216   2.298  1.0129 -0.6165 -0.7945
   10DMF     C1  598   0.636   0.721   3.481 -0.1003  0.1292 -0.0811
   10DMF     N1  599   0.776   0.700   3.435  0.3511 -0.6215 -0.7621
   10DMF     C2  600   0.806   0.696   3.294  0.0340  0.1768  0.0527
   10DMF     C3  601   0.880   0.687   3.529  0.1051 -0.3975  0.3258
   10DMF     O1  602   0.863   0.694   3.653 -0.1564  0.1068  0.5919
   10DMF     H1  603   0.573   0.755   3.398 -1.1542  1.3663  1.2218
   10DMF     H2  604   0.621   0.785   3.569 -0.4188 -0.1876  0.0935
   10DMF     H3  605   0.600   0.622   3.510  2.4206 -1.5379 -2.2952
   10DMF     H4  606   0.773   0.789   3.246  0.6904  0.9005  0.9909
   10DMF     H5  607   0.744   0.613   3.257 -1.0842  0.0753  2.0900
   10DMF     H6  608   0.911   0.673   3.272  0.3992  0.4710  1.4102
   10DMF     H7  609   0.979   0.692   3.480 -0.4983 -1.9973 -1.1213
   11DMF     C1  610   2.705   0.675   0.829  0.6341  0.0350 -0.4479
   11DMF     N1  611   2.825   0.749   0.860 -0.5140  0.2112  0.3560
   11DMF     C2  612   2.865   0.741   1.002  0.4422  0.5072 -1.0135
   11DMF     C3  613   2.919   0.771   0.756  0.3268  0.8624 -0.5870
   11DMF     O1  614   2.891   0.757   0.638 -0.2179  0.2431  0.1170
   11DMF     H1  615   2.676   0.695   0.725  2.1123 -0.3123 -0.9371
   11DMF     H2  616   2.623   0.716   0.889  1.0514  1.7043 -1.0032
   11DMF     H3  617   2.723   0.567   0.835  1.0529  0.2209  1.8261
   11DMF     H4  618   2.927   0.829   1.027  0.6655  0.7544 -2.4285
   11DMF     H5  619   2.922   0.650   1.025 -2.2540 -0.8091  0.6468
   11DMF     H6  620   2.781   0.743   1.073  0.3391  0.5623 -1.1367
   11DMF     H7  621   3.017   0.802   0.795  0.9225  1.0646 -2.2191
   12DMF     C1  622   2.587   2.868   3.661  0.3755  0.0030 -0.1512
   12DMF     N1  623   2.612   2.981   3.746  0.0947  0.1751  0.7158
   12DMF     C2  624   2.655   3.106   3.685  0.3535 -0.2147 -0.0423
   12DMF     C3  625   2.591   2.969   3.882  0.1459  0.4471 -0.1110
   12DMF     O1  626   2.558   2.863   3.933 -0.2363  0.3839 -0.0191
   12DMF     H1  627   2.606   2.773   3.713  1.0264  0.9043  1.2776
   12DMF     H2  628   2.652   2.868   3.572 -1.8036 -0.9879 -1.7884
   12DMF     H3  629   2.483   2.882   3.631 -0.0642  0.7839  1.6962
   12DMF     H4  630   2.755   3.107   3.639 -0.4553  1.5290 -1.8685
   12DMF     H5  631   2.640   3.187   3.757 -0.0715 -0.8301  0.5567
   12DMF     H6  632   2.586   3.133   3.603 -0.2458 -0.7214  0.2937
   12DMF     H7  633   2.616   3.065   3.931 -1.7314  1.8760 -1.8866
   13DMF     C1  634   3.175   3.018   2.565  0.2776  0.5427 -0.3677
   13DMF     N1  635   3.154   2.909   2.660  0.1620 -0.2788  0.3829
   13DMF     C2  636   3.057   2.811   2.637 -0.2486  0.0294 -0.1767
   13DMF     C3  637   3.218   2.915   2.784 -0.1058  0.6012 -0.2405
   13DMF     O1  638   3.311   2.987   2.814 -1.2345 -0.4652  0.4183
   13DMF     H1  639   3.165   3.112   2.621  1.0599 -0.2223  1.0941
   13DMF     H2  640   3.111   3.014   2.476  2.3851 -0.3605 -1.8907
   13DMF     H3  641   3.277   3.001   2.530  1.2897  1.6634  1.9179
   13DMF     H4  642   3.021   2.771   2.732  2.4952 -0.7569  0.5577
   13DMF     H5  643   3.094   2.725   2.580  0.4883 -0.0325  0.3927
   13DMF     H6  644   2.970   2.855   2.586  0.1515  0.8150 -0.1967
   13DMF     H7  645   3.197   2.831   2.852  0.7862  1.0510  0.5994
   14DMF     C1  646   1.139   2.130   3.330 -0.0884  0.3391 -0.4172
   14DMF     N1  647   1.045   2.245   3.379  0.2174  0.1654 -0.1529
   14DMF     C2  648   1.015   2.344   3.281  0.8219 -0.6519  0.1870
   14DMF     C3  649   0.991   2.247   3.511  0.0436 -0.1953  0.3335
   14DMF     O1  650   1.008   2.153   3.586  0.0136 -0.3941  0.2850
   14DMF     H1  651   1.236   2.134   3.381  0.4502  1.8551 -1.5294
   14DMF     H2  652   1.145   2.129   3.220  0.6570  0.3860 -0.3811
   14DMF     H3  653   1.090   2.034   3.352  1.0893 -0.6150 -1.8159
   14DMF     H4  654   0.907   2.361   3.288  0.4628 -2.1924 -1.1954
   14DMF     H5  655   1.046   2.324   3.177  2.1715 -1.1591  0.6722
   14DMF     H6  656   1.080   2.431   3.298 -0.0203  0.0606 -0.1968
   14DMF     H7  657   0.920   2.330   3.530  1.3445  1.4435 -1.6608
   15DMF     C1  658   2.468   3.401   0.154  0.1650 -0.0213 -0.1449
   15DMF     N1  659   2.377   3.336   0.247  0.1908  0.7801 -0.4862
   15DMF     C2  660   2.243   3.396   0.261 -0.4585  0.1055  0.5797
   15DMF     C3  661   2.428   3.261   0.350 -0.4674 -0.1884  0.2169
   15DMF     O1  662   2.546   3.228   0.361  0.0253  0.6335  0.3236
   15DMF     H1  663   2.421   3.440   0.062  0.4433  1.5510  0.3529
   15DMF     H2  664   2.543   3.329   0.121 -0.8999 -0.5858 -1.4050
   15DMF     H3  665   2.519   3.488   0.198 -1.5146  1.9384 -1.9395
   15DMF     H4  666   2.251   3.505   0.266  1.1454  0.0294 -0.1079
   15DMF     H5  667   2.181   3.341   0.332 -2.3171 -1.2889 -2.0228
   15DMF     H6  668   2.191   3.386   0.164  0.8056  1.3170 -0.2438
   15DMF     H7  669   2.348   3.230   0.419 -0.3841  0.6475  0.6965
   16DMF     C1  670   2.474   2.194   0.879  0.3077  0.2715 -0.2755
   16DMF     N1  671   2.482   2.215   1.026 -0.3584 -0.1483 -0.7931
   16DMF     C2  672   2.593   2.141   1.103 -0.7297 -0.5150  0.6700
   16DMF     C3  673   2.376   2.295   1.094  0.3265 -0.2241  0.1473
   16DMF     O1  674   2.280   2.350   1.044  0.1018 -0.5096 -0.0575
   16DMF     H1  675   2.535   2.107   0.853  2.4110  1.0483  1.8915
   16DMF     H2  676   2.520   2.274   0.819 -1.1301  1.1407 -0.2458
   16DMF     H3  677   2.373   2.168   0.843  0.2740  0.3686 -0.2486
   16DMF     H4  678   2.671   2.112   1.031 -0.2394 -1.7812  1.7028
   16DMF     H5  679   2.551   2.058   1.160 -1.2948 -0.0291  0.9624
   16DMF     H6  680   2.648   2.210   1.167  1.6750  0.6459 -2.4769
   16DMF     H7  681   2.396   2.298   1.203 -2.3399  0.1153  0.6487
   17DMF     C1  682   2.155   0.290   3.783 -0.5838  0.2389 -0.5538
   17DMF     N1  683   2.271   0.303   3.865 -0.0948 -0.1216  0.0369
   17DMF     C2  684   2.398   0.292   3.803 -0.0740  0.2539 -0.4932
   17DMF     C3  685   2.269   0.334   4.005 -0.0610  0.0278  0.4226
   17DMF     O1  686   2.164   0.343   4.068 -0.2039 -0.5127 -0.1199
   17DMF     H1  687   2.152   0.199   3.722 -0.2812 -1.3506  1.7513
   17DMF     H2  688   2.143   0.375   3.715  1.6470 -1.5936 -3.3413
   17DMF     H3  689   2.072   0.275   3.852  1.0518  0.7023  1.5570
   17DMF     H4  690   2.417   0.373   3.731 -0.2295  2.7729  2.2038
   17DMF     H5  691   2.405   0.197   3.749 -0.2524 -0.2864  0.4110
   17DMF     H6  692   2.480   0.293   3.876  0.1384 -1.8392 -0.6672
   17DMF     H7  693   2.365   0.365   4.052 -0.6986 -0.1704  1.9022
   18DMF     C1  694   0.802   0.597   1.251 -0.3720 -0.6138 -0.1245
   18DMF     N1  695   0.666   0.547   1.228  0.2644  0.2977  0.0572
   18DMF     C2  696   0.653   0.436   1.146  0.4172  0.9096  0.0686
   18DMF     C3  697   0.557   0.594   1.297 -0.4546  0.7464 -0.6380
   18DMF     O1  698   0.570   0.669   1.395  0.2738  0.1010 -0.6640
   18DMF     H1  699   0.808   0.697   1.296  2.8248 -0.2069 -1.3464
   18DMF     H2  700   0.842   0.597   1.149  1.1301 -0.5707  0.4566
   18DMF     H3  701   0.843   0.515   1.311 -0.6519 -1.9170 -1.6642
   18DMF     H4  702   0.683   0.347   1.202 -0.8156  0.3198 -0.1953
   18DMF     H5  703   0.704   0.444   1.049  0.6599 -0.7145  0.0457
   18DMF     H6  704   0.547   0.420   1.124  0.4292  0.4351  0.3511
   18DMF     H7  705   0.466   0.541   1.262 -0.6996 -0.1197  1.2649
   19DMF     C1  706   3.136   3.198   1.513  0.3766 -0.4015 -0.2208
   19DMF     N1  707   3.088   3.333   1.549 -0.2417  0.2025  0.0390
   19DMF     C2  708   3.195   3.425   1.567 -0.5651  0.2578 -0.2231
   19DMF     C3  709   2.948   3.369   1.560 -0.2142 -0.0806 -0.3396
   19DMF     O1  710   2.864   3.284   1.548 -0.2223  0.1124 -0.2124
   19DMF     H1  711   3.235   3.198   1.467  1.6903 -0.5773  2.4796
   19DMF     H2  712   3.067   3.137   1.452 -2.2916  2.6751 -0.4270
   19DMF     H3  713   3.154   3.152   1.612  0.9818  0.6715  0.1669
   19DMF     H4  714   3.290   3.380   1.599 -0.6247  0.3850  0.1409
   19DMF     H5  715   3.179   3.495   1.650 -1.1443  0.5492 -0.5788
   19DMF     H6  716   3.219   3.495   1.487  0.6412  0.3928  0.2354
   19DMF     H7  717   2.938   3.478   1.574  1.1941  0.2140 -1.4965
   20DMF     C1  718   1.352   2.565   0.045  0.6358  0.6473  0.1115
   20DMF     N1  719   1.264   2.672   0.099  0.0579  0.3515 -0.6310
   20DMF     C2  720   1.176   2.640   0.222 -0.4193  0.4378  0.8433
   20DMF     C3  721   1.229   2.778   0.014  0.5393  0.1038 -0.1908
   20DMF     O1  722   1.295   2.791  -0.090  0.0127 -0.3456  0.6420
   20DMF     H1  723   1.391   2.585  -0.055 -1.1096  2.4389 -0.2258
   20DMF     H2  724   1.297   2.471   0.032  0.3802  0.7860  0.1943
   20DMF     H3  725   1.432   2.550   0.119  2.3110  0.9478 -1.5869
   20DMF     H4  726   1.121   2.548   0.197  1.1220 -0.0353 -0.9097
   20DMF     H5  727   1.106   2.723   0.239  0.2107  0.9867  0.7549
   20DMF     H6  728   1.231   2.621   0.315 -0.7635 -2.1650  0.5630
   20DMF     H7  729   1.155   2.849   0.056  0.7462 -0.5461  1.2990
   21DMF     C1  730   0.125   3.147   1.565 -0.1039  0.2076  0.6272
   21DMF     N1  731   0.085   3.055   1.469  0.1315 -0.2119  0.4207
   21DMF     C2  732   0.014   2.924   1.520 -0.1514 -0.4545  0.4526
   21DMF     C3  733   0.134   3.056   1.335 -0.2700  0.0760 -0.6262
   21DMF     O1  734   0.216   3.145   1.306  0.1222 -0.3949 -0.2178
   21DMF     H1  735   0.143   3.249   1.531  0.9290  0.0726  0.7653
   21DMF     H2  736   0.221   3.122   1.612  0.9751 -1.4121 -2.3261
   21DMF     H3  737   0.049   3.147   1.645 -0.7689 -1.7307  0.0304
   21DMF     H4  738  -0.094   2.935   1.504 -0.0780 -2.2200 -1.3737
   21DMF     H5  739   0.045   2.887   1.618 -0.6253 -1.4879  0.2187
   21DMF     H6  740   0.046   2.845   1.451  1.4398  0.7653 -0.2421
   21DMF     H7  741   0.100   2.972   1.271  0.2846 -0.8296  0.2588
   22DMF     C1  742   0.825   0.262   1.551  0.2774  0.1880  0.8492
   22DMF     N1  743   0.686   0.273   1.507  0.4761  1.1255  0.4186
   22DMF     C2  744   0.594   0.375   1.569 -0.6126  0.4966 -0.5800
   22DMF     C3  745   0.637   0.180   1.403 -0.0437 -0.0758 -0.6882
   22DMF     O1  746   0.712   0.109   1.345  0.0759 -0.0067  0.1985
   22DMF     H1  747   0.843   0.312   1.647 -0.5219 -0.1765  1.1990
   22DMF     H2  748   0.882   0.306   1.469  3.1989 -1.5331  1.8802
   22DMF     H3  749   0.845   0.157   1.577 -1.0268 -0.1627  0.4989
   22DMF     H4  750   0.533   0.322   1.644 -0.1847 -0.3642 -0.8285
   22DMF     H5  751   0.539   0.429   1.492 -0.8725 -0.1955 -0.8854
   22DMF     H6  752   0.645   0.459   1.618 -0.4767  0.7670 -1.1844
   22DMF     H7  753   0.530   0.194   1.381 -0.0392 -0.8175 -1.1901
   23DMF     C1  754   0.884   2.578   1.092  0.8043 -0.2321 -0.2000
   23DMF     N1  755   0.877   2.479   0.982  0.3480 -0.0051 -0.5035
   23DMF     C2  756   0.947   2.345   0.993  0.6210 -0.6256  0.4372
   23DMF     C3  757   0.818   2.520   0.863  0.0104 -0.0867  0.2086
   23DMF     O1  758   0.768   2.633   0.849  0.1788  0.0821  0.0201
   23DMF     H1  759   0.790   2.630   1.112 -0.0340 -1.7174 -0.1555
   23DMF     H2  760   0.973   2.639   1.073  1.9508 -2.2214 -1.5184
   23DMF     H3  761   0.907   2.518   1.181  3.5121 -1.4478 -1.6375
   23DMF     H4  762   1.021   2.336   0.913 -0.0834  1.2193 -0.4242
   23DMF     H5  763   0.865   2.273   0.977  1.8484 -2.2412  1.1821
   23DMF     H6  764   1.005   2.329   1.085  0.8978  0.7862  0.5056
   23DMF     H7  765   0.811   2.442   0.784  0.5134  1.1597 -1.0842
   24DMF     C1  766   0.623   2.349   3.093 -0.4915 -0.6838 -0.0177
   24DMF     N1  767   0.606   2.199   3.074 -0.0338 -1.2015 -0.4003
   24DMF     C2  768   0.719   2.131   3.013 -0.2809  0.1474 -0.4143
   24DMF     C3  769   0.480   2.130   3.084  0.0758 -0.2238  0.4454
   24DMF     O1  770   0.373   2.184   3.114  0.5410  0.0063  0.0153
   24DMF     H1  771   0.563   2.410   3.024  0.1179 -0.3299 -0.2515
   24DMF     H2  772   0.730   2.375   3.093 -0.2725 -1.4668 -2.2335
   24DMF     H3  773   0.580   2.366   3.192  0.7669 -1.9891  0.7683
   24DMF     H4  774   0.813   2.177   3.045  0.0458  0.7439 -2.1870
   24DMF     H5  775   0.714   2.156   2.906  1.2887  1.2266 -0.2447
   24DMF     H6  776   0.704   2.023   3.026 -1.0381  0.2214 -0.6543
   24DMF     H7  777   0.482   2.024   3.053 -0.5034  0.0358 -0.5024
   25DMF     C1  778   3.113   1.497   3.716 -0.7224 -0.3773  0.7393
   25DMF     N1  779   3.155   1.454   3.584 -0.1425  0.7690  0.0395
   25DMF     C2  780   3.053   1.453   3.478 -0.5646  0.2159 -0.4455
   25DMF     C3  781   3.295   1.417   3.558  0.0066 -0.0127 -0.4355
   25DMF     O1  782   3.383   1.403   3.643  0.3261 -0.0237  0.5693
   25DMF     H1  783   3.011   1.531   3.694 -1.0744 -1.6608  0.3544
   25DMF     H2  784   3.182   1.571   3.757 -0.7923 -0.6355  1.3292
   25DMF     H3  785   3.100   1.409   3.781 -0.7460 -2.4631 -1.9966
   25DMF     H4  786   3.000   1.357   3.471 -1.8028  1.0142 -2.4236
   25DMF     H5  787   3.104   1.454   3.381  0.0665 -1.9035 -0.1609
   25DMF     H6  788   2.985   1.539   3.488 -0.3739  0.4240 -0.9198
   25DMF     H7  789   3.315   1.403   3.450  0.1326 -0.9181 -0.2963
   26DMF     C1  790   2.896   0.576   1.544 -0.6656 -0.1171 -0.1580
   26DMF     N1  791   3.029   0.511   1.569 -0.0610 -0.0301  0.1751
   26DMF     C2  792   3.144   0.592   1.553 -0.9269 -1.1830  0.0106
   26DMF     C3  793   3.034   0.375   1.569 -0.0533 -0.1154 -0.5316
   26DMF     O1  794   2.935   0.307   1.584 -0.0963 -0.9089 -0.6993
   26DMF     H1  795   2.852   0.558   1.445 -2.4178 -0.9992  0.7442
   26DMF     H2  796   2.896   0.682   1.569  1.2211  0.1323 -1.1386
   26DMF     H3  797   2.822   0.533   1.613  0.0526 -4.1982 -1.7825
   26DMF     H4  798   3.200   0.546   1.471  0.5267  2.1033 -0.9212
   26DMF     H5  799   3.217   0.589   1.635  1.1234 -0.6990 -1.7659
   26DMF     H6  800   3.115   0.694   1.525  0.1913  0.1541  3.3507
   26DMF     H7  801   3.138   0.340   1.558 -0.6485 -2.1593  0.1685
   27DMF     C1  802   2.019   1.620   2.735  0.0081  0.0586 -0.6222
   27DMF     N1  803   1.883   1.620   2.797  0.4499  0.2526 -0.3392
   27DMF     C2  804   1.793   1.507   2.774 -0.0881  0.1109  0.8340
   27DMF     C3  805   1.835   1.728   2.876  0.1774  0.0643 -0.0963
   27DMF     O1  806   1.905   1.827   2.884 -0.1938  0.3332  0.2106
   27DMF     H1  807   2.086   1.591   2.817 -0.4776 -1.1260 -0.6371
   27DMF     H2  808   2.043   1.719   2.696  1.2063  0.3937  0.9189
   27DMF     H3  809   2.022   1.544   2.655 -1.3410 -1.0722  0.3836
   27DMF     H4  810   1.795   1.478   2.668  1.9814  1.5703  0.4424
   27DMF     H5  811   1.692   1.543   2.797 -0.2039 -1.2180  2.4860
   27DMF     H6  812   1.811   1.416   2.832  0.2013 -0.3594  0.0163
   27DMF     H7  813   1.736   1.711   2.922  0.9478 -0.7454  1.2757
   28DMF     C1  814   3.368   1.108   2.449  0.1624  0.5041 -0.2690
   28DMF     N1  815   3.356   0.969   2.420  0.0987  0.0927  0.2565
   28DMF     C2  816   3.357   0.924   2.275 -0.6264  0.1666 -0.4387
   28DMF     C3  817   3.377   0.864   2.515 -0.4494  1.2170  0.3247
   28DMF     O1  818   3.401   0.889   2.630  0.2225  0.0490  0.3407
   28DMF     H1  819   3.277   1.142   2.500 -1.2267 -2.2907 -0.7870
   28DMF     H2  820   3.401   1.167   2.362  1.1056 -0.4837 -0.5960
   28DMF     H3  821   3.445   1.112   2.527 -0.0381  0.2163 -0.0554
   28DMF     H4  822   3.460   0.905   2.242 -0.4582  0.1420  0.0828
   28DMF     H5  823   3.311   1.003   2.214  0.8755  0.8201 -0.7636
   28DMF     H6  824   3.305   0.828   2.273 -1.9982  0.8658  0.4583
   28DMF     H7  825   3.387   0.761   2.476 -0.6046  0.7996  1.3783
   29DMF     C1  826   2.991   3.366   0.979 -0.3272 -0.5034 -0.9082
   29DMF     N1  827   3.067   3.433   1.086  0.1104  0.0649  0.3008
   29DMF     C2  828   3.068   3.379   1.223  0.3793 -0.0560 -0.3986
   29DMF     C3  829   3.118   3.570   1.076 -0.3983  0.1797  0.0514
   29DMF     O1  830   3.126   3.625   0.966  0.4255  0.6247 -0.5515
   29DMF     H1  831   3.054   3.282   0.950 -1.0183 -2.4112  2.8067
   29DMF     H2  832   2.969   3.430   0.893 -2.1690 -0.1572 -0.2095
   29DMF     H3  833   2.899   3.318   1.015 -1.2703  1.8377 -0.0907
   29DMF     H4  834   2.975   3.324   1.244 -0.2575  1.4283  0.7340
   29DMF     H5  835   3.073   3.456   1.300  1.4556 -0.8017  0.2965
   29DMF     H6  836   3.160   3.321   1.235 -0.5490 -1.8052 -1.4612
   29DMF     H7  837   3.156   3.612   1.170  2.1953 -1.9422  0.0269
   30DMF     C1  838   1.580   1.327   3.201  0.6345 -0.5331  0.7507
   30DMF     N1  839   1.641   1.193   3.221  0.0601 -0.0773  0.3298
   30DMF     C2  840   1.638   1.120   3.348 -0.5899 -0.5374  0.0079
   30DMF     C3  841   1.685   1.122   3.105  0.3771  0.4576  0.0794
   30DMF     O1  842   1.678   1.174   2.994  0.0844 -0.8336 -0.6470
   30DMF     H1  843   1.546   1.368   3.297 -0.3987 -0.2547  0.2766
   30DMF     H2  844   1.499   1.307   3.130  0.0203 -0.7682  1.5069
   30DMF     H3  845   1.653   1.395   3.157 -0.9237  2.1593  2.2342
   30DMF     H4  846   1.537   1.142   3.387 -0.9999  0.2796 -1.4681
   30DMF     H5  847   1.714   1.160   3.416 -0.7824 -2.1065  1.1740
   30DMF     H6  848   1.668   1.015   3.339  1.5588  0.1899 -1.6130
   30DMF     H7  849   1.725   1.020   3.119  2.2320  0.7650 -2.5690
   31DMF     C1  850   2.221   2.122   2.785  0.4389  0.2433 -0.8007
   31DMF     N1  851   2.171   2.037   2.892 -0.3793 -0.0327  0.2548
   31DMF     C2  852   2.061   2.083   2.981 -0.1388 -0.1432  0.1787
   31DMF     C3  853   2.212   1.899   2.887  0.7859 -0.2837 -0.2725
   31DMF     O1  854   2.293   1.862   2.798 -0.0808 -0.1049 -0.3112
   31DMF     H1  855   2.170   2.104   2.690  0.0222 -1.2125 -0.3191
   31DMF     H2  856   2.327   2.103   2.763 -0.1184 -0.3065 -3.1311
   31DMF     H3  857   2.205   2.225   2.819  0.3211 -0.5206  1.5927
   31DMF     H4  858   2.094   2.173   3.036  1.3343  0.5361 -1.7837
   31DMF     H5  859   2.047   1.995   3.044  2.7430 -0.0103  1.0736
   31DMF     H6  860   1.965   2.098   2.930 -1.1511 -3.1972  1.0974
   31DMF     H7  861   2.161   1.835   2.960  0.7018 -1.5907 -1.4518
   32DMF     C1  862   1.088   2.959   0.417 -0.5236  0.1885 -0.3322
   32DMF     N1  863   1.228   2.925   0.399 -0.4230 -0.5740 -0.9494
   32DMF     C2  864   1.301   2.851   0.510 -0.2319 -0.6159 -0.1823
   32DMF     C3  865   1.296   2.977   0.286  0.4259 -0.0150 -0.8919
   32DMF     O1  866   1.246   3.035   0.192 -0.4255  0.1701 -0.0413
   32DMF     H1  867   1.036   2.864   0.401  0.3945 -0.5835  1.0774
   32DMF     H2  868   1.047   3.043   0.360 -2.4014 -1.3586 -1.3182
   32DMF     H3  869   1.078   2.980   0.524  0.5963  1.3380 -0.4505
   32DMF     H4  870   1.270   2.746   0.505 -0.1906 -0.5616 -1.7044
   32DMF     H5  871   1.272   2.899   0.604  1.3575  1.7854 -0.8764
   32DMF     H6  872   1.409   2.851   0.490 -0.4629  0.1039 -1.4707
   32DMF     H7  873   1.404   2.949   0.287  0.8855  1.7114 -0.7689
   33DMF     C1  874   2.634   2.238   2.876 -0.8176 -0.0946 -1.4572
   33DMF     N1  875   2.574   2.368   2.915  0.5451  0.3290 -0.6556
   33DMF     C2  876   2.628   2.439   3.032  0.0493 -0.4533  0.1428
   33DMF     C3  877   2.467   2.415   2.846 -0.2401  0.5367  0.0331
   33DMF     O1  878   2.411   2.352   2.760  0.2553 -0.7363  0.4178
   33DMF     H1  879   2.671   2.256   2.774 -1.5163  0.1474 -1.6680
   33DMF     H2  880   2.558   2.160   2.878 -1.9807  1.0496  0.2638
   33DMF     H3  881   2.723   2.208   2.933  0.1848  1.7001 -2.0417
   33DMF     H4  882   2.687   2.523   2.994 -0.5249  0.4982  1.2811
   33DMF     H5  883   2.688   2.375   3.098  0.0472 -0.6055 -0.0046
   33DMF     H6  884   2.540   2.475   3.087 -0.4219 -0.0304 -0.8818
   33DMF     H7  885   2.432   2.517   2.870 -0.1229  1.0318 -1.8159
   34DMF     C1  886   1.674   0.749   1.552 -0.2368 -0.2592 -0.5797
   34DMF     N1  887   1.724   0.893   1.564 -0.1665 -0.4771 -0.8042
   34DMF     C2  888   1.861   0.923   1.538 -0.4427 -0.1565  0.2910
   34DMF     C3  889   1.637   0.999   1.582 -0.7069  0.4955 -0.1758
   34DMF     O1  890   1.513   0.986   1.583  0.1228 -0.4464  0.4651
   34DMF     H1  891   1.572   0.735   1.591  0.7533 -2.4256  1.3405
   34DMF     H2  892   1.742   0.685   1.609  2.3350  2.6783 -0.2133
   34DMF     H3  893   1.685   0.712   1.449  0.9784 -0.2531 -0.4497
   34DMF     H4  894   1.901   0.970   1.629  1.2478 -1.1267  0.0609
   34DMF     H5  895   1.865   1.004   1.463  1.8472  0.8799  1.4812
   34DMF     H6  896   1.921   0.837   1.506 -1.0135 -1.6354  3.0537
   34DMF     H7  897   1.688   1.097   1.590  2.6775 -1.3677  2.7424
   35DMF     C1  898   2.989   1.236   1.550 -0.3758 -0.2197  0.4490
   35DMF     N1  899   3.109   1.152   1.527  0.3072  0.1661 -0.0514
   35DMF     C2  900   3.078   1.002   1.510 -0.5336  1.1372 -0.6215
   35DMF     C3  901   3.240   1.194   1.504  0.6565  0.2603  0.2664
   35DMF     O1  902   3.277   1.307   1.524  0.2904 -1.1821  0.0616
   35DMF     H1  903   2.907   1.217   1.479 -1.0066  1.3191  0.7607
   35DMF     H2  904   3.028   1.338   1.552 -3.7346  1.1362  0.0885
   35DMF     H3  905   2.948   1.206   1.647 -2.0289 -2.7373 -0.9735
   35DMF     H4  906   2.999   0.979   1.438 -0.5566 -1.4043  0.1739
   35DMF     H5  907   3.038   0.974   1.608 -2.9860  2.2525 -1.2393
   35DMF     H6  908   3.169   0.944   1.494  0.5740  2.7202 -0.2605
   35DMF     H7  909   3.309   1.110   1.486  1.2157  0.7935 -0.0630
   36DMF     C1  910   1.137   3.083   1.188 -0.9663  0.3813  0.3986
   36DMF     N1  911   0.985   3.102   1.195  0.5371 -0.8583  0.1489
   36DMF     C2  912   0.902   2.977   1.176  0.3416 -0.5575 -0.0100
   36DMF     C3  913   0.936   3.230   1.177  0.2648 -0.4801 -0.4578
   36DMF     O1  914   1.006   3.326   1.168 -0.3638  0.1275  0.0825
   36DMF     H1  915   1.197   3.158   1.136 -1.4969 -0.1006 -0.9290
   36DMF     H2  916   1.174   2.993   1.138 -1.9013 -0.1940  0.7154
   36DMF     H3  917   1.175   3.086   1.291 -1.4830 -2.3917  0.7069
   36DMF     H4  918   0.945   2.900   1.241  0.3660 -0.4143  0.1442
   36DMF     H5  919   0.926   2.935   1.077 -0.3591  1.4404 -1.0442
   36DMF     H6  920   0.797   2.995   1.202 -0.5199 -3.4640 -1.1870
   36DMF     H7  921   0.825   3.235   1.175  0.1759 -1.9617  0.4489
   37DMF     C1  922   0.291   1.366   3.466 -0.3454  0.3073 -0.6026
   37DMF     N1  923   0.272   1.341   3.326  0.0091  0.0058 -0.0131
   37DMF     C2  924   0.241   1.452   3.239  0.1776 -0.4036  0.5450
   37DMF     C3  925   0.290   1.208   3.263  0.0267  0.8347  0.4163
   37DMF     O1  926   0.326   1.114   3.336  0.0077  0.3184  0.1401
   37DMF     H1  927   0.261   1.278   3.524 -1.1891  0.5606 -0.6456
   37DMF     H2  928   0.238   1.456   3.501  0.0550  0.0323  0.7315
   37DMF     H3  929   0.398   1.379   3.485 -0.4659  0.5905 -0.1054
   37DMF     H4  930   0.309   1.535   3.263 -1.9993  1.3392  0.8368
   37DMF     H5  931   0.135   1.478   3.243 -0.2820 -1.6994 -2.0568
   37DMF     H6  932   0.269   1.417   3.139  0.0590 -0.2788  0.4685
   37DMF     H7  933   0.257   1.199   3.158 -0.1325  2.2842  0.3255
   38DMF     C1  934   0.075   0.140   1.361  0.1653  0.1906 -0.4423
   38DMF     N1  935   0.149   0.197   1.471 -0.6485  0.1272  0.1354
   38DMF     C2  936   0.251   0.114   1.539 -0.8179  0.3179  0.4762
   38DMF     C3  937   0.090   0.294   1.552 -0.2339 -0.6687  0.3109
   38DMF     O1  938  -0.023   0.340   1.535 -0.3643 -0.4408  0.2200
   38DMF     H1  939   0.007   0.216   1.321  0.8274  0.8101 -0.3874
   38DMF     H2  940   0.003   0.066   1.399 -0.2471  0.9702  0.3100
   38DMF     H3  941   0.140   0.108   1.278 -1.5869  0.8255 -2.0905
   38DMF     H4  942   0.343   0.173   1.550  0.3197 -1.5941  1.5212
   38DMF     H5  943   0.272   0.020   1.486  3.0160  0.9959  0.6588
   38DMF     H6  944   0.227   0.084   1.642 -1.5389 -3.2391 -0.6548
   38DMF     H7  945   0.144   0.330   1.641  1.1925 -0.6155 -0.5595
   39DMF     C1  946   2.252   2.944   0.115 -0.6762  0.2087  0.0521
   39DMF     N1  947   2.119   2.965   0.145  0.2446 -0.3862 -0.1453
   39DMF     C2  948   2.069   3.104   0.144 -0.6279 -0.0412 -0.4222
   39DMF     C3  949   2.032   2.861   0.177  0.4730  0.1853  0.9632
   39DMF     O1  950   2.071   2.743   0.183  0.6434  0.0868  0.3354
   39DMF     H1  951   2.288   2.841   0.118 -0.3773  0.2418 -1.6968
   39DMF     H2  952   2.311   3.013   0.176 -1.9459  1.5610 -0.2226
   39DMF     H3  953   2.266   2.977   0.011 -3.0451  1.4785  0.1077
   39DMF     H4  954   1.971   3.091   0.097 -0.2123  0.8928 -1.5663
   39DMF     H5  955   2.130   3.178   0.092  0.9468  0.8807  2.6233
   39DMF     H6  956   2.053   3.141   0.246 -2.6129  1.2630 -1.1621
   39DMF     H7  957   1.930   2.897   0.199  0.8467  2.3039 -0.5420
   40DMF     C1  958   1.512   3.257   0.134  0.0870 -0.0736 -0.6347
   40DMF     N1  959   1.594   3.176   0.215  0.5751 -0.0184  0.1359
   40DMF     C2  960   1.655   3.059   0.155  0.6689 -0.1327 -0.0456
   40DMF     C3  961   1.660   3.229   0.329  0.6369 -0.0382 -0.5049
   40DMF     O1  962   1.628   3.337   0.378 -0.0152  0.1195  0.1182
   40DMF     H1  963   1.437   3.189   0.092 -0.5395 -0.1481  0.5611
   40DMF     H2  964   1.574   3.295   0.052  2.4534  1.0912  1.6229
   40DMF     H3  965   1.460   3.340   0.185  0.8115  0.4984 -0.8173
   40DMF     H4  966   1.621   3.045   0.052 -2.9292 -0.0058  1.0461
   40DMF     H5  967   1.639   2.964   0.208 -0.7156  0.7901  1.2252
   40DMF     H6  968   1.762   3.082   0.147  0.4325  1.3316  0.7619
   40DMF     H7  969   1.739   3.167   0.376 -1.6032 -2.3624  0.3277
   41DMF     C1  970   2.198   2.826   3.341 -0.0590  0.9985  0.2446
   41DMF     N1  971   2.295   2.860   3.243  0.1524 -0.8378 -0.4296
   41DMF     C2  972   2.378   2.972   3.274 -0.2339  0.1970 -0.5595
   41DMF     C3  973   2.332   2.782   3.133 -0.3052 -0.4002  0.0477
   41DMF     O1  974   2.275   2.673   3.117  0.1134  0.3875 -0.4593
   41DMF     H1  975   2.158   2.729   3.309  0.8297  0.7029  0.0351
   41DMF     H2  976   2.124   2.906   3.332 -3.1027 -1.2394  3.5941
   41DMF     H3  977   2.244   2.829   3.441 -0.3573 -0.3911  0.4418
   41DMF     H4  978   2.327   3.066   3.296 -0.4917  0.0764 -0.6409
   41DMF     H5  979   2.457   2.987   3.199 -0.2235 -0.5682 -0.7107
   41DMF     H6  980   2.429   2.950   3.369 -1.2212  0.4840  0.0471
   41DMF     H7  981   2.410   2.819   3.064  0.0991 -1.6564 -0.1881
   42DMF     C1  982   0.744   1.259   3.666 -0.2864 -0.1239 -0.4464
   42DMF     N1  983   0.732   1.245   3.520  0.0159  0.2354  0.2576
   42DMF     C2  984   0.773   1.114   3.471 -0.1860 -0.1419  0.0579
   42DMF     C3  985   0.683   1.351   3.440 -0.2451  0.4139 -0.4478
   42DMF     O1  986   0.646   1.447   3.491  0.2736  0.2392  0.1201
   42DMF     H1  987   0.807   1.181   3.712  1.3112  2.5042  2.0014
   42DMF     H2  988   0.642   1.261   3.705 -0.9318  0.6288 -2.1356
   42DMF     H3  989   0.785   1.359   3.683 -0.4541 -0.3109  1.1949
   42DMF     H4  990   0.757   1.105   3.363 -0.5682  0.7482  0.0280
   42DMF     H5  991   0.715   1.044   3.533 -2.0045  1.4785  0.2576
   42DMF     H6  992   0.870   1.080   3.507 -1.0801 -2.2241  0.5555
   42DMF     H7  993   0.676   1.327   3.332  0.1091  0.1906 -0.4235
   43DMF     C1  994   2.462   1.144   2.809  0.1624  0.0836 -0.1149
   43DMF     N1  995   2.488   1.245   2.704 -0.0242 -0.5597  0.2556
   43DMF     C2  996   2.390   1.350   2.678 -0.7439 -0.3609  0.9192
   43DMF     C3  997   2.592   1.224   2.608  0.4378 -0.3396  0.3069
   43DMF     O1  998   2.666   1.131   2.624  0.1494 -0.2007  0.1025
   43DMF     H1  999   2.528   1.056   2.800  0.3243  0.1427  0.5291
   43DMF     H2 1000   2.359   1.108   2.799  0.1848  0.2686 -1.0827
   43DMF     H3 1001   2.477   1.173   2.913 -1.8205  0.3596  0.1095
   43DMF     H4 1002   2.365   1.352   2.572 -0.5216 -1.2827  0.8403
   43DMF     H5 1003   2.426   1.450   2.705  0.7540 -1.0343  1.5272
   43DMF     H6 1004   2.301   1.325   2.737 -2.7631 -2.1150 -2.6803
   43DMF     H7 1005   2.591   1.308   2.536 -2.1895 -0.5634  0.0445
   44DMF     C1 1006   0.545   0.348   3.381  0.4135  0.2166 -0.1918
   44DMF     N1 1007   0.644   0.248   3.359  0.1994 -0.7609 -0.0246
   44DMF     C2 1008   0.781   0.283   3.411 -0.7833  0.2184  0.0632
   44DMF     C3 1009   0.614   0.123   3.313 -0.1083 -0.5611  0.1474
   44DMF     O1 1010   0.499   0.091   3.292  0.2120 -0.0893 -0.0801
   44DMF     H1 1011   0.509   0.374   3.281 -3.1291  1.6411  1.3617
   44DMF     H2 1012   0.590   0.441   3.418 -0.9669  0.7526  0.1637
   44DMF     H3 1013   0.456   0.308   3.431  0.0395  0.4194 -0.6873
   44DMF     H4 1014   0.848   0.307   3.327  0.1211 -1.9861  0.1138
   44DMF     H5 1015   0.822   0.199   3.468 -0.0017  0.4164 -0.1978
   44DMF     H6 1016   0.784   0.367   3.481  0.2510 -0.5954  0.9925
   44DMF     H7 1017   0.699   0.055   3.294  0.8809  0.5004  0.7248
   45DMF     C1 1018   0.073   3.229   2.610 -0.3044  0.9183  0.1956
   45DMF     N1 1019   0.124   3.367   2.624  0.4556  0.0799  0.3345
   45DMF     C2 1020   0.230   3.394   2.725 -0.4496 -0.2067 -0.1786
   45DMF     C3 1021   0.059   3.473   2.556 -0.3099 -1.0414 -0.5743
   45DMF     O1 1022  -0.010   3.460   2.459  0.4875  0.4396 -0.5675
   45DMF     H1 1023   0.156   3.166   2.574 -1.4629 -1.0798  0.9448
   45DMF     H2 1024  -0.013   3.206   2.546  0.3330  1.8561 -1.0254
   45DMF     H3 1025   0.048   3.184   2.707  0.5104 -0.6542 -0.2949
   45DMF     H4 1026   0.188   3.441   2.815  0.9966 -0.5724  0.7118
   45DMF     H5 1027   0.310   3.460   2.690  0.0509  0.1328  1.5370
   45DMF     H6 1028   0.275   3.294   2.734 -0.8924 -0.6537 -2.5980
   45DMF     H7 1029   0.092   3.570   2.597 -0.6780 -1.2225  0.1594
   46DMF     C1 1030   1.820   0.179   3.331  0.1848  0.1043 -0.2091
   46DMF     N1 1031   1.705   0.243   3.270  0.5506  0.1961  0.3691
   46DMF     C2 1032   1.573   0.245   3.336 -0.3845 -0.1611  0.1795
   46DMF     C3 1033   1.717   0.287   3.141  0.0995  0.1844  0.4844
   46DMF     O1 1034   1.819   0.277   3.076 -0.6528 -0.7330 -0.3939
   46DMF     H1 1035   1.893   0.141   3.257  0.2114 -0.7928  0.2670
   46DMF     H2 1036   1.789   0.094   3.392 -0.2557 -0.3189 -1.0072
   46DMF     H3 1037   1.869   0.250   3.399  1.9578 -0.8599 -0.4257
   46DMF     H4 1038   1.518   0.158   3.298 -1.9590  1.3505 -1.0885
   46DMF     H5 1039   1.509   0.329   3.309 -1.8968 -1.0376  0.9963
   46DMF     H6 1040   1.588   0.254   3.444 -0.1040 -1.2678  0.2412
   46DMF     H7 1041   1.622   0.319   3.095 -1.1245 -2.6820  0.9203
   47DMF     C1 1042   1.375   3.334   3.536 -0.2921  0.1929  0.0138
   47DMF     N1 1043   1.412   3.193   3.549 -0.4428 -0.0498  0.5668
   47DMF     C2 1044   1.319   3.087   3.599 -0.0057  0.5096  0.0682
   47DMF     C3 1045   1.544   3.147   3.515 -0.3097 -0.0533 -0.2321
   47DMF     O1 1046   1.645   3.217   3.502 -0.1877  1.2289  0.2425
   47DMF     H1 1047   1.427   3.376   3.450 -0.2102  0.4037  0.1659
   47DMF     H2 1048   1.407   3.392   3.623 -0.7328  0.1447  0.2136
   47DMF     H3 1049   1.266   3.346   3.527 -0.2799  0.6588  0.4749
   47DMF     H4 1050   1.336   3.069   3.706 -0.3392 -1.1354 -0.1395
   47DMF     H5 1051   1.332   2.995   3.541 -0.6501 -0.3298  1.2352
   47DMF     H6 1052   1.226   3.145   3.587 -0.2826  0.0943  0.1842
   47DMF     H7 1053   1.555   3.038   3.526  0.1018  0.3461  4.5611
   48DMF     C1 1054   0.781   1.569   1.507  0.0703  0.3493 -0.0096
   48DMF     N1 1055   0.846   1.707   1.521 -0.4400 -0.3871 -0.4565
   48DMF     C2 1056   0.992   1.720   1.501  0.4706 -0.5199  0.0727
   48DMF     C3 1057   0.775   1.828   1.545 -0.5831  0.5969  0.6626
   48DMF     O1 1058   0.656   1.825   1.561 -0.0091 -0.6828 -0.0733
   48DMF     H1 1059   0.827   1.525   1.417 -1.3532  1.2178 -1.1744
   48DMF     H2 1060   0.673   1.581   1.495 -0.2901 -0.1836  2.3337
   48DMF     H3 1061   0.801   1.508   1.597 -1.5588  2.0197  1.5153
   48DMF     H4 1062   1.030   1.646   1.429 -1.2286 -1.3554  0.0270
   48DMF     H5 1063   1.040   1.706   1.599  2.3525 -1.9948 -1.0277
   48DMF     H6 1064   1.015   1.821   1.466  0.2755 -0.0772  1.1843
   48DMF     H7 1065   0.837   1.919   1.556  0.8026 -0.3683  0.8455
   49DMF     C1 1066   2.098   3.197   3.131 -0.4698  0.2749 -0.7436
   49DMF     N1 1067   1.963   3.189   3.190 -0.0062 -0.9366  0.0903
   49DMF     C2 1068   1.860   3.078   3.164 -0.8323 -0.3862 -0.0520
   49DMF     C3 1069   1.940   3.274   3.300  0.6103 -0.3277 -0.1834
   49DMF     O1 1070   2.019   3.360   3.326  0.0631  0.1245  0.0818
   49DMF     H1 1071   2.165   3.124   3.179  0.0454  0.5620 -1.0288
   49DMF     H2 1072   2.146   3.294   3.149 -2.1261  0.4359  3.6291
   49DMF     H3 1073   2.104   3.161   3.028 -0.1468 -2.7303  0.2658
   49DMF     H4 1074   1.843   3.067   3.056  1.0925 -0.0180 -0.4184
   49DMF     H5 1075   1.768   3.117   3.208 -0.3015  0.9077 -0.0585
   49DMF     H6 1076   1.906   2.993   3.216  1.3461 -0.0602 -1.3755
   49DMF     H7 1077   1.854   3.246   3.363 -0.8098  1.8550 -1.1273
   50DMF     C1 1078   2.805   2.212   0.084 -1.0583  0.0058 -1.1572
   50DMF     N1 1079   2.722   2.159   0.197 -0.0221 -0.1866  0.1062
   50DMF     C2 1080   2.636   2.259   0.270  0.4212  1.0841 -0.0458
   50DMF     C3 1081   2.717   2.017   0.233  0.5324 -0.2319  0.7529
   50DMF     O1 1082   2.777   1.927   0.175 -0.4152  0.5419 -0.3285
   50DMF     H1 1083   2.775   2.157  -0.006 -1.9072 -2.3573  0.4907
   50DMF     H2 1084   2.910   2.194   0.108 -0.9935 -0.7234 -1.9884
   50DMF     H3 1085   2.793   2.320   0.073  0.9687  0.2758 -0.8330
   50DMF     H4 1086   2.669   2.253   0.374 -2.6347  0.5477  0.9642
   50DMF     H5 1087   2.530   2.233   0.252  0.0340  2.3024  0.4348
   50DMF     H6 1088   2.640   2.364   0.240  2.7946  0.4746 -2.0339
   50DMF     H7 1089   2.648   2.005   0.319 -1.9501 -0.0295 -1.1447
   51DMF     C1 1090   3.360   2.340   0.955 -0.1929  0.6500 -0.4119
   51DMF     N1 1091   3.342   2.481   1.002  0.2044  0.6110  0.0278
   51DMF     C2 1092   3.204   2.531   1.018 -0.2034  0.1809  0.1344
   51DMF     C3 1093   3.452   2.559   1.039 -0.3741  0.2301  0.6225
   51DMF     O1 1094   3.565   2.534   1.015  0.4364  0.1997 -0.1344
   51DMF     H1 1095   3.425   2.342   0.866  2.6042 -1.7429  1.4672
   51DMF     H2 1096   3.267   2.303   0.908 -0.8659  2.2481 -0.3728
   51DMF     H3 1097   3.393   2.268   1.031 -0.0375  1.0697 -0.0821
   51DMF     H4 1098   3.187   2.622   0.959 -1.0322 -1.3297 -2.0017
   51DMF     H5 1099   3.194   2.550   1.126 -1.0635 -0.2556  0.1311
   51DMF     H6 1100   3.134   2.451   0.993  0.2560  0.3557 -1.7389
   51DMF     H7 1101   3.414   2.652   1.086 -2.7095  1.0509 -2.7197
   52DMF     C1 1102   0.497   2.121   2.681  0.4831 -0.1599 -0.2690
   52DMF     N1 1103   0.616   2.199   2.658  0.3101 -0.1010 -0.3129
   52DMF     C2 1104   0.594   2.345   2.676  0.0500 -0.1980 -0.2391
   52DMF     C3 1105   0.734   2.138   2.610 -0.1615 -0.2730  0.0714
   52DMF     O1 1106   0.745   2.020   2.584  0.0956 -0.5062 -0.3986
   52DMF     H1 1107   0.488   2.043   2.604 -0.5158 -1.1452  0.8202
   52DMF     H2 1108   0.405   2.180   2.686  0.3713 -0.4294  1.0666
   52DMF     H3 1109   0.506   2.059   2.772  3.3150 -1.2689 -1.2643
   52DMF     H4 1110   0.686   2.394   2.713 -0.7702 -1.7276  4.1738
   52DMF     H5 1111   0.526   2.356   2.762 -1.5132 -1.1513 -1.3392
   52DMF     H6 1112   0.545   2.390   2.589 -1.8998  0.2791  1.0704
   52DMF     H7 1113   0.812   2.215   2.597 -1.1252  0.4884 -1.3870
   53DMF     C1 1114   1.123   0.936   3.346 -0.1089 -0.2132 -0.6054
   53DMF     N1 1115   1.152   1.056   3.260  0.4623 -0.1658 -0.1521
   53DMF     C2 1116   1.273   1.126   3.272 -0.0626 -0.3097 -0.3486
   53DMF     C3 1117   1.058   1.097   3.166  0.2739  0.2201  0.1364
   53DMF     O1 1118   0.949   1.041   3.150  0.0566 -0.1657 -0.1144
   53DMF     H1 1119   1.016   0.910   3.346 -0.2874  0.5001  0.1299
   53DMF     H2 1120   1.162   0.957   3.446  2.1539  0.5928 -1.6339
   53DMF     H3 1121   1.175   0.844   3.314  0.2081 -1.1927  2.5301
   53DMF     H4 1122   1.334   1.074   3.347  0.1245  0.2114 -0.1321
   53DMF     H5 1123   1.252   1.227   3.310 -2.6200 -1.5043  1.5880
   53DMF     H6 1124   1.323   1.141   3.176 -0.0411  1.8256 -0.0344
   53DMF     H7 1125   1.092   1.181   3.103  0.1600 -0.5332 -0.9517
   54DMF     C1 1126   1.640   2.319   3.116 -0.2063 -0.9140 -0.3507
   54DMF     N1 1127   1.614   2.178   3.079 -0.1078 -0.2756 -0.0976
   54DMF     C2 1128   1.698   2.075   3.147  0.0572  0.7363 -0.2896
   54DMF     C3 1129   1.536   2.150   2.970 -0.5432 -0.3120  0.8437
   54DMF     O1 1130   1.468   2.236   2.915 -0.1610 -0.0174  0.0495
   54DMF     H1 1131   1.746   2.326   3.087  0.0726 -1.3248  0.5545
   54DMF     H2 1132   1.618   2.327   3.223 -0.5966 -0.2940 -0.4734
   54DMF     H3 1133   1.578   2.385   3.054  1.3891 -1.3393 -2.4787
   54DMF     H4 1134   1.783   2.113   3.204  0.0146  1.2880 -0.5964
   54DMF     H5 1135   1.742   2.013   3.069  1.0530 -1.0261  1.6153
   54DMF     H6 1136   1.638   2.013   3.215 -1.1689  0.6311 -1.4499
   54DMF     H7 1137   1.542   2.043   2.944 -2.7941 -0.3866  0.5302
   55DMF     C1 1138   2.606   1.121   0.308 -0.2398 -0.7847  0.1594
   55DMF     N1 1139   2.641   0.986   0.359  0.1635  0.7657 -0.0875
   55DMF     C2 1140   2.530   0.893   0.334 -0.3294  0.0977 -0.1728
   55DMF     C3 1141   2.738   0.961   0.451 -0.1849 -0.0386  0.6687
   55DMF     O1 1142   2.807   1.056   0.493  0.2195 -0.0835 -0.3449
   55DMF     H1 1143   2.676   1.190   0.357 -0.1897 -2.0164  1.8342
   55DMF     H2 1144   2.500   1.141   0.325  0.3303  1.4101  1.3558
   55DMF     H3 1145   2.636   1.124   0.202  0.0515 -1.9683  0.2010
   55DMF     H4 1146   2.466   0.925   0.252  0.0944 -2.8981 -1.7409
   55DMF     H5 1147   2.475   0.878   0.428 -0.3174  0.1777 -0.1529
   55DMF     H6 1148   2.574   0.795   0.311  1.5760  0.6406  0.9999
   55DMF     H7 1149   2.745   0.858   0.489 -2.9456 -0.2423  0.7329
   56DMF     C1 1150   0.206   3.165   2.245  0.3786 -0.5576 -0.2564
   56DMF     N1 1151   0.210   3.012   2.240  0.5098 -0.0844 -0.3962
   56DMF     C2 1152   0.338   2.956   2.263  0.1659 -0.1559 -0.1858
   56DMF     C3 1153   0.099   2.928   2.236 -0.1408 -0.2239 -0.7185
   56DMF     O1 1154  -0.012   2.980   2.231 -0.2549 -0.5765 -0.3361
   56DMF     H1 1155   0.110   3.194   2.201 -0.1152 -0.2148  1.0224
   56DMF     H2 1156   0.295   3.198   2.190  0.4386 -1.4464 -0.6972
   56DMF     H3 1157   0.211   3.209   2.345 -2.3161 -0.6181 -0.0600
   56DMF     H4 1158   0.318   2.855   2.303  1.4750 -0.9988 -1.6028
   56DMF     H5 1159   0.394   3.014   2.337 -1.9743  0.1698  1.2221
   56DMF     H6 1160   0.390   2.958   2.166 -0.0213 -0.6867 -0.3032
   56DMF     H7 1161   0.125   2.820   2.245  2.9726  0.5041 -0.4566
   57DMF     C1 1162   2.398   3.033   1.473  0.2110 -0.1856 -0.2128
   57DMF     N1 1163   2.520   3.092   1.535  0.3185  0.5996 -0.2542
   57DMF     C2 1164   2.642   3.010   1.532 -0.8695 -0.0601  0.2507
   57DMF     C3 1165   2.529   3.227   1.568 -0.2074  0.0197 -0.4335
   57DMF     O1 1166   2.435   3.305   1.539 -0.0411 -0.0400  0.3630
   57DMF     H1 1167   2.349   2.964   1.544  0.6441 -2.3466 -1.9733
   57DMF     H2 1168   2.445   2.972   1.396 -1.2631 -2.0130  0.3090
   57DMF     H3 1169   2.334   3.111   1.429  3.0370  0.5803 -3.1109
   57DMF     H4 1170   2.671   2.979   1.431  0.3303  0.8835  0.2993
   57DMF     H5 1171   2.628   2.916   1.588 -0.3344 -1.4583 -1.8961
   57DMF     H6 1172   2.721   3.066   1.583 -0.8482  1.4493 -1.4126
   57DMF     H7 1173   2.621   3.250   1.625 -0.4912  3.5334 -1.3048
   58DMF     C1 1174   2.698   1.703   1.544  0.1144 -0.1056 -0.5021
   58DMF     N1 1175   2.590   1.624   1.485 -0.1504  0.5972  0.6847
   58DMF     C2 1176   2.452   1.687   1.474  0.0498 -0.1992  0.0311
   58DMF     C3 1177   2.622   1.510   1.401 -0.0914  0.0478  1.2993
   58DMF     O1 1178   2.724   1.443   1.415 -0.5191  0.2936 -0.3672
   58DMF     H1 1179   2.751   1.645   1.620 -1.6706 -0.0162  0.8310
   58DMF     H2 1180   2.656   1.796   1.583  0.7766 -0.4798  1.1544
   58DMF     H3 1181   2.769   1.730   1.465  0.4558  0.8557  0.1238
   58DMF     H4 1182   2.374   1.611   1.465 -1.1583  1.0722 -0.3383
   58DMF     H5 1183   2.459   1.764   1.397  0.9889  0.9105  1.1915
   58DMF     H6 1184   2.435   1.736   1.571  0.6064 -0.0500  0.0561
   58DMF     H7 1185   2.533   1.484   1.341 -1.8443 -1.1692  4.3476
   59DMF     C1 1186   0.348   2.217   2.325  0.0432 -0.3557 -0.2306
   59DMF     N1 1187   0.485   2.186   2.278  0.4593  0.3317  0.7411
   59DMF     C2 1188   0.516   2.043   2.275 -0.8058 -0.0934  0.0576
   59DMF     C3 1189   0.572   2.291   2.238  0.2194 -0.4450 -0.0417
   59DMF     O1 1190   0.539   2.405   2.241  0.8859 -0.4088 -0.1787
   59DMF     H1 1191   0.300   2.274   2.245  0.9980 -0.7399 -1.0809
   59DMF     H2 1192   0.341   2.279   2.416 -0.0122  0.7177 -0.9615
   59DMF     H3 1193   0.281   2.133   2.343 -0.7593  0.5636  1.2498
   59DMF     H4 1194   0.461   1.992   2.356 -3.1974  2.0965 -0.1117
   59DMF     H5 1195   0.622   2.028   2.298 -1.1550 -0.5898  1.3962
   59DMF     H6 1196   0.501   2.005   2.173 -1.4283 -0.7751  0.3935
   59DMF     H7 1197   0.675   2.259   2.212 -0.5685 -1.0360 -2.5535
   60DMF     C1 1198   1.722   2.214   2.219 -0.0851 -0.1717 -0.2885
   60DMF     N1 1199   1.667   2.070   2.228  0.4321  0.5848 -0.0066
   60DMF     C2 1200   1.532   2.053   2.258  0.3180  0.1351 -0.3999
   60DMF     C3 1201   1.751   1.958   2.235  0.9915  0.0180 -0.1899
   60DMF     O1 1202   1.874   1.965   2.217  1.0508  0.4243 -0.4481
   60DMF     H1 1203   1.648   2.282   2.175  0.9735  2.2862  1.5812
   60DMF     H2 1204   1.811   2.214   2.154 -0.3902  1.4216 -0.7341
   60DMF     H3 1205   1.752   2.250   2.318 -0.7442 -3.3168  1.1248
   60DMF     H4 1206   1.497   1.967   2.200  0.0271 -0.6335  0.8948
   60DMF     H5 1207   1.468   2.139   2.230 -0.6758 -0.1620  0.9256
   60DMF     H6 1208   1.519   2.020   2.361  0.1535 -0.5578 -0.6388
   60DMF     H7 1209   1.698   1.867   2.269  2.4801 -0.3116  1.2862
   61DMF     C1 1210   2.217   0.877   0.047  0.0286  0.2590 -0.0168
   61DMF     N1 1211   2.217   0.786  -0.062  0.3841  0.7235 -0.1635
   61DMF     C2 1212   2.276   0.650  -0.049 -0.9641 -0.2082 -0.1011
   61DMF     C3 1213   2.149   0.816  -0.181  0.7320 -0.3010 -0.1847
   61DMF     O1 1214   2.076   0.911  -0.203 -0.7648 -0.3823  0.1846
   61DMF     H1 1215   2.282   0.843   0.129  0.3302  0.1526 -0.2987
   61DMF     H2 1216   2.118   0.893   0.090  0.1343 -1.3029  0.8572
   61DMF     H3 1217   2.255   0.974   0.013 -0.3464  0.7641  0.9919
   61DMF     H4 1218   2.252   0.592  -0.139  1.9828  0.4287 -1.3601
   61DMF     H5 1219   2.232   0.599   0.037 -1.2654 -0.8345 -0.6174
   61DMF     H6 1220   2.384   0.655  -0.033 -1.0448 -0.8744  0.6452
   61DMF     H7 1221   2.158   0.737  -0.257 -0.0318 -0.4836 -0.0956
   62DMF     C1 1222   1.958   1.118   2.724 -0.2232 -0.1693 -0.1950
   62DMF     N1 1223   2.073   1.068   2.640  0.3758 -0.3779 -0.3816
   62DMF     C2 1224   2.136   0.928   2.665  0.1716 -0.7669 -0.2100
   62DMF     C3 1225   2.139   1.147   2.551 -0.3780  0.2728 -0.1476
   62DMF     O1 1226   2.104   1.257   2.525 -0.2713  0.2586 -0.0404
   62DMF     H1 1227   1.912   1.036   2.781  1.2437 -0.7078  0.2325
   62DMF     H2 1228   1.878   1.164   2.664  1.5327  1.7538 -1.1151
   62DMF     H3 1229   2.000   1.191   2.794 -1.3904  0.6486 -0.3261
   62DMF     H4 1230   2.242   0.932   2.639 -0.2576 -0.8059 -2.0742
   62DMF     H5 1231   2.081   0.863   2.596 -0.4469 -2.0345  1.4587
   62DMF     H6 1232   2.121   0.907   2.772 -1.9210 -2.2113 -0.7585
   62DMF     H7 1233   2.227   1.092   2.513 -1.5706 -1.2240 -0.7733
   63DMF     C1 1234   3.376   1.682   3.019  0.5968  0.3555  0.5296
   63DMF     N1 1235   3.234   1.660   3.027 -0.2286  0.1330  0.6248
   63DMF     C2 1236   3.176   1.663   3.154 -0.1409 -0.0223  0.3694
   63DMF     C3 1237   3.156   1.628   2.912 -0.6993 -0.3089  0.0565
   63DMF     O1 1238   3.200   1.644   2.799  0.0143  0.2825  0.3590
   63DMF     H1 1239   3.396   1.785   2.987  0.5059  0.6681  1.4695
   63DMF     H2 1240   3.418   1.607   2.950 -2.2381 -0.5489 -0.2744
   63DMF     H3 1241   3.421   1.663   3.117  1.8248 -1.3460 -0.3555
   63DMF     H4 1242   3.143   1.763   3.184 -3.7604 -1.1476  0.4335
   63DMF     H5 1243   3.257   1.649   3.227  0.6586  1.5953 -0.1762
   63DMF     H6 1244   3.094   1.590   3.154  0.0668 -0.2792  2.1795
   63DMF     H7 1245   3.050   1.606   2.936 -0.6112 -1.9467 -0.9941
   64DMF     C1 1246   1.795   2.269   2.775  0.0273  0.4297  0.5884
   64DMF     N1 1247   1.795   2.173   2.660 -0.0933 -0.2198 -0.1828
   64DMF     C2 1248   1.712   2.052   2.670  0.6375  0.3228 -0.8009
   64DMF     C3 1249   1.892   2.167   2.563  0.2771 -0.0314 -0.0183
   64DMF     O1 1250   1.984   2.236   2.558  0.1477 -0.5820  0.4485
   64DMF     H1 1251   1.821   2.214   2.866 -1.5837  0.0544  0.8500
   64DMF     H2 1252   1.697   2.316   2.793 -0.0664  0.2300  0.5998
   64DMF     H3 1253   1.869   2.347   2.756 -0.8679  1.1221 -0.1540
   64DMF     H4 1254   1.610   2.072   2.706 -0.1471  0.5521 -3.0994
   64DMF     H5 1255   1.762   1.977   2.733 -3.0259 -1.1623  0.4417
   64DMF     H6 1256   1.693   2.009   2.571  0.9998  1.2358 -1.2792
   64DMF     H7 1257   1.864   2.095   2.484 -0.6667  1.6132 -1.2187
   65DMF     C1 1258   0.657   1.734   2.776  0.2648 -0.5820  0.2625
   65DMF     N1 1259   0.712   1.610   2.721  0.5165 -0.4208  0.0801
   65DMF     C2 1260   0.846   1.613   2.670 -0.1968  0.3483  0.5415
   65DMF     C3 1261   0.631   1.504   2.682 -0.9146  0.3788 -0.0869
   65DMF     O1 1262   0.512   1.514   2.684 -1.1146 -0.1343 -0.2237
   65DMF     H1 1263   0.595   1.788   2.704 -0.1983  1.0878  1.8816
   65DMF     H2 1264   0.736   1.809   2.790 -0.1723 -0.4286  2.0338
   65DMF     H3 1265   0.602   1.713   2.868 -0.8692 -0.1661 -0.3116
   65DMF     H4 1266   0.844   1.682   2.585 -0.8510 -3.6287 -2.8381
   65DMF     H5 1267   0.893   1.522   2.631  0.1775 -0.1660  2.1516
   65DMF     H6 1268   0.920   1.645   2.744 -0.5180  0.5497  0.7743
   65DMF     H7 1269   0.680   1.414   2.639 -1.4283  1.3560 -2.7798
   66DMF     C1 1270   2.788   3.129   3.294  0.0555 -0.8248 -1.1358
   66DMF     N1 1271   2.839   3.004   3.334 -0.5708  0.1535 -0.6108
   66DMF     C2 1272   2.932   3.008   3.453 -0.0528  0.0346  0.5434
   66DMF     C3 1273   2.784   2.879   3.299 -0.0426 -0.7127  0.1878
   66DMF     O1 1274   2.688   2.863   3.221  0.2854  0.0266 -0.2801
   66DMF     H1 1275   2.813   3.199   3.376 -0.4771 -0.9033 -0.8990
   66DMF     H2 1276   2.678   3.132   3.295  0.0555  0.4648  1.6894
   66DMF     H3 1277   2.814   3.151   3.190  2.0461 -2.9837 -1.1396
   66DMF     H4 1278   3.024   2.951   3.434 -1.3788 -2.3143  0.9342
   66DMF     H5 1279   2.878   2.975   3.542  2.2464 -0.3623  1.8462
   66DMF     H6 1280   2.959   3.114   3.465 -0.5480  0.3664 -1.0563
   66DMF     H7 1281   2.833   2.794   3.350  1.6072 -0.4057 -0.8555
   67DMF     C1 1282   2.425   2.832   1.139  0.0203 -0.0288  1.0018
   67DMF     N1 1283   2.340   2.710   1.135 -0.1039  0.0107  0.1301
   67DMF     C2 1284   2.311   2.635   1.262 -0.4124  0.0583 -0.3805
   67DMF     C3 1285   2.269   2.674   1.019 -0.2996 -0.2976 -0.0835
   67DMF     O1 1286   2.272   2.731   0.913 -0.0131  0.5912 -0.8431
   67DMF     H1 1287   2.396   2.902   1.218 -1.8732 -0.2524  0.5294
   67DMF     H2 1288   2.431   2.879   1.040  0.1292  0.1888  1.1097
   67DMF     H3 1289   2.528   2.795   1.151  0.5370  0.1051 -2.3572
   67DMF     H4 1290   2.338   2.690   1.353  0.7641 -0.5659 -0.3428
   67DMF     H5 1291   2.374   2.545   1.261 -0.5973 -0.0707 -0.5047
   67DMF     H6 1292   2.209   2.596   1.260  0.2586 -1.7149 -2.5979
   67DMF     H7 1293   2.203   2.588   1.039  0.9877 -1.1712  0.4397
   68DMF     C1 1294   0.416   1.628   1.519  0.1175 -0.7658  0.0417
   68DMF     N1 1295   0.308   1.519   1.530 -0.0461  0.1888  0.6763
   68DMF     C2 1296   0.165   1.554   1.553  0.3347 -0.2916 -0.0141
   68DMF     C3 1297   0.335   1.382   1.524 -0.2451 -0.2655 -0.2121
   68DMF     O1 1298   0.446   1.331   1.514 -0.4737 -0.2077 -0.3804
   68DMF     H1 1299   0.472   1.632   1.425  0.6253 -0.2700  0.3618
   68DMF     H2 1300   0.489   1.625   1.601  1.7368 -1.4964 -1.4054
   68DMF     H3 1301   0.366   1.725   1.527  1.3100 -0.2267  1.0256
   68DMF     H4 1302   0.145   1.661   1.536  1.9682 -0.1112 -0.9029
   68DMF     H5 1303   0.145   1.528   1.658  1.6511 -2.3686 -0.2419
   68DMF     H6 1304   0.099   1.486   1.500  1.9198 -1.0757 -1.0130
   68DMF     H7 1305   0.239   1.329   1.539  0.6266 -1.1831  2.3953
   69DMF     C1 1306   2.642   3.198   1.157  0.1008  0.3069 -0.1266
   69DMF     N1 1307   2.677   3.157   1.023  0.5641  0.6339 -0.3136
   69DMF     C2 1308   2.596   3.221   0.923  0.0660 -0.0445 -0.1412
   69DMF     C3 1309   2.709   3.021   1.009 -0.4786  0.1049  0.4719
   69DMF     O1 1310   2.744   2.950   1.107 -0.2902 -1.1669  0.8906
   69DMF     H1 1311   2.555   3.137   1.186 -0.2550 -0.0688 -1.9262
   69DMF     H2 1312   2.629   3.306   1.159  0.8840  0.4409 -1.8904
   69DMF     H3 1313   2.727   3.174   1.223 -1.0962  0.6781  1.5666
   69DMF     H4 1314   2.581   3.329   0.931  1.1604  0.2220 -1.4659
   69DMF     H5 1315   2.499   3.173   0.907  0.4676 -0.1951 -2.2736
   69DMF     H6 1316   2.651   3.213   0.829  2.4673  1.8156  1.0273
   69DMF     H7 1317   2.689   2.983   0.907 -1.2039 -2.1141  1.4113
   70DMF     C1 1318   1.143   3.235   0.679 -0.2367  0.5964 -0.2409
   70DMF     N1 1319   1.118   3.366   0.739  0.3847  0.0483  0.1837
   70DMF     C2 1320   1.125   3.373   0.885 -0.1108  0.2625  0.9616
   70DMF     C3 1321   1.069   3.475   0.669  0.5581 -0.0052 -0.4943
   70DMF     O1 1322   1.056   3.483   0.548 -0.6745  0.5102 -0.0557
   70DMF     H1 1323   1.252   3.223   0.668 -0.4385  0.3965 -2.1291
   70DMF     H2 1324   1.091   3.217   0.584 -3.5420 -0.6799  1.7218
   70DMF     H3 1325   1.106   3.154   0.742  0.8647 -1.1198 -1.7628
   70DMF     H4 1326   1.174   3.283   0.925 -0.9641 -0.7378 -0.1977
   70DMF     H5 1327   1.023   3.373   0.926  0.1046  4.0675  1.6747
   70DMF     H6 1328   1.177   3.466   0.909  1.2528  0.1476 -1.3763
   70DMF     H7 1329   1.055   3.560   0.739 -0.1590 -0.2667 -0.3173
   71DMF     C1 1330   3.076   1.115   1.072 -0.0687  0.6294  0.0958
   71DMF     N1 1331   2.984   1.205   1.146 -0.2484 -0.0829 -0.3295
   71DMF     C2 1332   2.853   1.153   1.174  0.2669  0.2945  0.7932
   71DMF     C3 1333   3.033   1.315   1.207  0.2395 -0.3061  0.8161
   71DMF     O1 1334   3.151   1.340   1.206  0.2600  0.4133  0.5584
   71DMF     H1 1335   3.129   1.164   0.990  2.5949 -2.2711  0.0083
   71DMF     H2 1336   3.016   1.038   1.023  1.3335 -0.0119 -0.6318
   71DMF     H3 1337   3.150   1.065   1.135 -1.9925  0.4667  2.3117
   71DMF     H4 1338   2.816   1.120   1.076  1.9061 -1.3630  0.7145
   71DMF     H5 1339   2.779   1.226   1.210  1.7164  1.7601  0.8156
   71DMF     H6 1340   2.871   1.074   1.248  1.2326  0.5895  0.8683
   71DMF     H7 1341   2.959   1.368   1.270  0.8175  2.9849 -1.1603
   72DMF     C1 1342   1.676   1.317   1.185  0.3620  0.3615 -0.5926
   72DMF     N1 1343   1.649   1.439   1.116  0.6013  0.8243  0.3962
   72DMF     C2 1344   1.519   1.510   1.149  0.1598  0.1715 -0.2297
   72DMF     C3 1345   1.737   1.495   1.022 -0.0001  0.3044 -0.1091
   72DMF     O1 1346   1.842   1.436   1.006  0.5484  0.2206 -0.0490
   72DMF     H1 1347   1.629   1.328   1.283 -0.1691  0.1963 -0.8239
   72DMF     H2 1348   1.785   1.304   1.191  0.1339 -0.5344  2.2480
   72DMF     H3 1349   1.628   1.233   1.133 -0.2477  0.3250  0.0219
   72DMF     H4 1350   1.532   1.619   1.149  0.1163  0.1792 -0.6280
   72DMF     H5 1351   1.479   1.472   1.244 -2.2848  1.7444 -0.5674
   72DMF     H6 1352   1.443   1.485   1.075 -0.3891  1.1238 -0.0020
   72DMF     H7 1353   1.707   1.591   0.976  1.1758  1.1910  0.9421
   73DMF     C1 1354   0.125   3.331   0.502  0.0904  0.1781 -0.4404
   73DMF     N1 1355   0.157   3.457   0.438 -0.1056 -0.4039  0.2209
   73DMF     C2 1356   0.244   3.449   0.316 -0.1141 -0.3890 -0.7837
   73DMF     C3 1357   0.138   3.584   0.493 -0.2332 -0.7223 -0.4707
   73DMF     O1 1358   0.079   3.596   0.598 -0.3887  0.9172  0.3961
   73DMF     H1 1359   0.076   3.349   0.598  1.6803  2.5299 -0.0388
   73DMF     H2 1360   0.215   3.271   0.519  0.8019  1.6857  1.2386
   73DMF     H3 1361   0.061   3.266   0.441 -0.3643 -1.3747  1.6436
   73DMF     H4 1362   0.233   3.354   0.263 -2.2737  0.3747 -1.7507
   73DMF     H5 1363   0.351   3.471   0.329 -0.4778  1.4250 -0.7844
   73DMF     H6 1364   0.208   3.524   0.245  1.7156  1.9748  0.6974
   73DMF     H7 1365   0.166   3.670   0.429 -0.7686  0.3032  0.6541
   74DMF     C1 1366   3.304   0.936   3.205 -0.2861 -0.3331 -0.4393
   74DMF     N1 1367   3.388   0.998   3.304  0.1112 -0.6334  0.5450
   74DMF     C2 1368   3.455   0.903   3.391  0.1426 -0.2423 -0.1952
   74DMF     C3 1369   3.390   1.133   3.328 -0.2497 -0.1977 -0.0020
   74DMF     O1 1370   3.314   1.208   3.265 -0.4270  0.2711 -0.4442
   74DMF     H1 1371   3.337   0.953   3.102  0.7621  0.2230 -0.0264
   74DMF     H2 1372   3.210   0.991   3.220  0.8166  0.9310  2.1112
   74DMF     H3 1373   3.284   0.831   3.228 -2.2743 -0.4010 -2.3634
   74DMF     H4 1374   3.555   0.942   3.414 -0.2482  0.0995  0.9596
   74DMF     H5 1375   3.442   0.800   3.358 -2.6705  0.4694 -1.4797
   74DMF     H6 1376   3.401   0.903   3.487  2.4354  2.6202  1.1710
   74DMF     H7 1377   3.458   1.173   3.405 -0.9555  0.7006  0.1574
   75DMF     C1 1378   1.240   2.793   2.260  0.2663  0.5203 -0.1016
   75DMF     N1 1379   1.203   2.867   2.388  0.2078  0.3579 -0.3240
   75DMF     C2 1380   1.072   2.932   2.391  0.8533 -0.0084 -0.4535
   75DMF     C3 1381   1.298   2.888   2.490  0.1418 -1.2475 -0.5016
   75DMF     O1 1382   1.402   2.822   2.494  0.7462 -0.2642  0.1979
   75DMF     H1 1383   1.301   2.855   2.194  1.2961 -0.8555 -0.4547
   75DMF     H2 1384   1.161   2.750   2.196 -0.0183  1.0175 -0.0881
   75DMF     H3 1385   1.296   2.701   2.281  1.4965  0.7339 -2.3174
   75DMF     H4 1386   0.997   2.865   2.348  0.2231 -0.0702  0.7259
   75DMF     H5 1387   1.073   3.028   2.338  1.5178  0.1474 -0.1742
   75DMF     H6 1388   1.037   2.950   2.493 -1.0359 -2.0252 -0.7077
   75DMF     H7 1389   1.258   2.953   2.570 -0.9272 -2.5140  0.0076
   76DMF     C1 1390   1.906   2.277   1.511  0.1079  0.0188  0.1077
   76DMF     N1 1391   2.003   2.316   1.405 -0.0246 -0.7630  0.0836
   76DMF     C2 1392   2.122   2.406   1.439  0.1286  0.2417 -0.0948
   76DMF     C3 1393   1.993   2.264   1.272  0.4473  0.3751  0.6475
   76DMF     O1 1394   1.905   2.201   1.224  0.1185 -0.0536 -0.1901
   76DMF     H1 1395   1.898   2.167   1.516  0.2525 -0.0109 -0.2943
   76DMF     H2 1396   1.815   2.331   1.487 -0.1713 -0.0312  1.0178
   76DMF     H3 1397   1.945   2.306   1.610  1.3507 -1.1609 -0.0103
   76DMF     H4 1398   2.210   2.371   1.385  0.1994 -1.4241  1.0375
   76DMF     H5 1399   2.148   2.386   1.544  2.5090 -0.2498 -0.7505
   76DMF     H6 1400   2.111   2.514   1.422 -1.2337 -0.0835 -1.4131
   76DMF     H7 1401   2.085   2.287   1.215 -1.0617  2.0642 -1.1843
   77DMF     C1 1402   0.631   2.371   3.463  0.2457  0.5920  0.2442
   77DMF     N1 1403   0.486   2.358   3.457  0.1663 -0.3687  0.1753
   77DMF     C2 1404   0.444   2.222   3.495  0.8685 -0.6971 -0.3075
   77DMF     C3 1405   0.405   2.468   3.432 -0.3719  0.4390 -0.3897
   77DMF     O1 1406   0.461   2.574   3.401  0.6782 -0.0586  0.3199
   77DMF     H1 1407   0.681   2.307   3.536 -3.3573 -1.8817  0.6602
   77DMF     H2 1408   0.655   2.477   3.482  1.2556  0.3812  0.1531
   77DMF     H3 1409   0.671   2.346   3.364 -1.2333 -1.3334  0.1079
   77DMF     H4 1410   0.423   2.217   3.603  1.3617  0.9299 -0.1148
   77DMF     H5 1411   0.513   2.145   3.457  2.0055  0.4397 -0.5746
   77DMF     H6 1412   0.346   2.214   3.447  0.8717 -0.4817 -0.3490
   77DMF     H7 1413   0.296   2.455   3.444 -0.1814  1.1918  2.3355
   78DMF     C1 1414   3.017   1.258   3.123  0.1673 -0.0814  0.5860
   78DMF     N1 1415   2.899   1.189   3.051 -0.9568  0.3043 -0.4856
   78DMF     C2 1416   2.842   1.071   3.118  0.3132  0.1811  0.2074
   78DMF     C3 1417   2.864   1.220   2.923 -0.6761 -0.6604 -0.2257
   78DMF     O1 1418   2.899   1.317   2.862  0.5225 -0.0780 -0.0243
   78DMF     H1 1419   2.992   1.342   3.189 -1.1087 -0.1539  0.2004
   78DMF     H2 1420   3.078   1.305   3.045 -2.7269  0.2568 -1.5732
   78DMF     H3 1421   3.072   1.187   3.185  1.3989  1.5797  1.4484
   78DMF     H4 1422   2.918   1.007   3.163  1.6330  3.2222  2.5098
   78DMF     H5 1423   2.781   1.012   3.049 -0.2119  1.3866 -0.3789
   78DMF     H6 1424   2.776   1.097   3.202  0.0955  1.6770 -0.4129
   78DMF     H7 1425   2.791   1.156   2.870 -0.9240  0.2645 -1.0021
   79DMF     C1 1426   2.630   1.697   0.686 -0.7559 -0.7151 -0.1443
   79DMF     N1 1427   2.572   1.610   0.583 -0.4453 -0.0221 -0.2337
   79DMF     C2 1428   2.478   1.669   0.496  0.1288 -0.8404  0.8331
   79DMF     C3 1429   2.606   1.475   0.571  0.2216  0.0035 -0.4182
   79DMF     O1 1430   2.682   1.412   0.648  0.1591  0.0735 -0.2815
   79DMF     H1 1431   2.582   1.795   0.689  1.4230  0.4972 -3.2209
   79DMF     H2 1432   2.739   1.706   0.683 -0.7347 -0.2180  1.4822
   79DMF     H3 1433   2.622   1.652   0.786  0.1493 -1.2855 -0.3294
   79DMF     H4 1434   2.497   1.776   0.479  1.3273 -0.8261  2.2320
   79DMF     H5 1435   2.374   1.651   0.526 -0.9323  1.6685 -1.1093
   79DMF     H6 1436   2.486   1.634   0.392  1.0607  0.3437  0.4914
   79DMF     H7 1437   2.564   1.433   0.478 -4.2102  1.8606  0.6026
   80DMF     C1 1438   0.250   0.991   0.836  0.3927 -0.3439 -0.3014
   80DMF     N1 1439   0.351   0.929   0.743 -1.0952 -0.4052 -0.7001
   80DMF     C2 1440   0.323   0.810   0.673  0.1138  0.2600  0.8021
   80DMF     C3 1441   0.464   1.004   0.710  0.4448 -0.1313  0.2057
   80DMF     O1 1442   0.494   1.106   0.775  0.2169 -0.1059  0.2446
   80DMF     H1 1443   0.290   1.033   0.929 -1.4400 -2.7652  1.6510
   80DMF     H2 1444   0.177   0.917   0.870 -0.0121  0.5960  0.9135
   80DMF     H3 1445   0.189   1.059   0.776 -0.3134 -0.6927  0.0139
   80DMF     H4 1446   0.260   0.843   0.589  1.8247 -0.4608 -0.7934
   80DMF     H5 1447   0.259   0.744   0.733  1.2348 -1.6332 -0.0567
   80DMF     H6 1448   0.414   0.760   0.637  0.2729  1.3453 -0.3688
   80DMF     H7 1449   0.530   0.964   0.631  0.2497  0.5305 -0.2935
   81DMF     C1 1450   1.871   1.616   2.259  0.0265 -0.1691  0.0840
   81DMF     N1 1451   1.924   1.478   2.270 -0.1844  0.1031  0.4169
   81DMF     C2 1452   2.062   1.461   2.244 -0.1402  0.0668 -0.4306
   81DMF     C3 1453   1.855   1.381   2.341  0.3376  0.0466  0.5493
   81DMF     O1 1454   1.741   1.406   2.380 -0.0493  0.0769  0.1728
   81DMF     H1 1455   1.762   1.613   2.273  0.1199 -2.6320  0.6429
   81DMF     H2 1456   1.896   1.653   2.159  0.0351 -2.0374 -0.6312
   81DMF     H3 1457   1.913   1.671   2.344  1.0372 -1.0383  0.1508
   81DMF     H4 1458   2.118   1.452   2.337 -1.2507 -1.3713  0.1167
   81DMF     H5 1459   2.101   1.542   2.181  0.1394  0.3916  0.1566
   81DMF     H6 1460   2.074   1.371   2.182 -1.1074  0.2218 -0.8652
   81DMF     H7 1461   1.913   1.289   2.363 -0.0305  0.0893  1.7079
   82DMF     C1 1462   3.314   2.132   1.494 -0.6175 -0.1166 -0.1243
   82DMF     N1 1463   3.325   2.274   1.450  0.0638  0.4147 -0.2719
   82DMF     C2 1464   3.416   2.370   1.517  0.0374 -0.7248  0.5242
   82DMF     C3 1465   3.256   2.311   1.333 -0.5022  0.6877  0.5308
   82DMF     O1 1466   3.178   2.231   1.281  0.9426  0.3664 -0.1346
   82DMF     H1 1467   3.220   2.135   1.550 -1.3398 -2.5412 -1.1659
   82DMF     H2 1468   3.394   2.100   1.561 -1.0557  0.2565  0.5869
   82DMF     H3 1469   3.307   2.065   1.407  3.2275 -0.0445 -0.5659
   82DMF     H4 1470   3.517   2.338   1.489  0.0534 -0.7280  0.5851
   82DMF     H5 1471   3.399   2.377   1.625 -1.3546 -1.1253  0.3431
   82DMF     H6 1472   3.400   2.472   1.480  1.7998 -0.5601  0.1706
   82DMF     H7 1473   3.271   2.415   1.299  2.7629  0.4728  1.1875
   83DMF     C1 1474   0.293   1.145   1.217  0.1437 -0.2911  0.1466
   83DMF     N1 1475   0.171   1.218   1.188 -0.6125  0.0249  0.1376
   83DMF     C2 1476   0.174   1.366   1.204 -0.2637  0.1036  0.5624
   83DMF     C3 1477   0.060   1.163   1.132 -0.0561  0.3744  0.5888
   83DMF     O1 1478   0.047   1.047   1.116 -0.0958 -0.1752  0.3680
   83DMF     H1 1479   0.303   1.142   1.326  3.6682 -3.1588 -0.1888
   83DMF     H2 1480   0.382   1.195   1.178  0.1593  0.7700  1.4767
   83DMF     H3 1481   0.291   1.040   1.186  0.3427 -1.1554  2.9123
   83DMF     H4 1482   0.265   1.399   1.255  0.4162  0.2703 -0.7199
   83DMF     H5 1483   0.082   1.412   1.241 -0.6735  0.0527 -0.3836
   83DMF     H6 1484   0.180   1.408   1.102 -1.6678 -1.5629 -0.2341
   83DMF     H7 1485  -0.017   1.242   1.122 -1.8276 -1.4226 -0.3286
   84DMF     C1 1486   1.886   1.443   3.398  0.1536 -0.1169 -0.1063
   84DMF     N1 1487   1.933   1.321   3.469  0.4139 -0.3430  1.0097
   84DMF     C2 1488   1.878   1.288   3.603  0.2454  0.3788  0.8479
   84DMF     C3 1489   2.049   1.253   3.422  0.0115 -0.3202 -0.3461
   84DMF     O1 1490   2.108   1.276   3.317 -0.2986 -0.3428 -0.1368
   84DMF     H1 1491   1.853   1.419   3.296 -1.8747 -0.2769  0.5726
   84DMF     H2 1492   1.971   1.511   3.389  2.1780 -2.5161  0.3562
   84DMF     H3 1493   1.810   1.485   3.465  2.7942  1.3699  2.0365
   84DMF     H4 1494   1.927   1.338   3.688  0.9792  0.3385  0.4501
   84DMF     H5 1495   1.887   1.180   3.619 -0.7948  0.3613  1.2986
   84DMF     H6 1496   1.772   1.316   3.596  0.4599  0.5223 -2.5301
   84DMF     H7 1497   2.096   1.199   3.506 -1.0616  1.1445  1.2364
   85DMF     C1 1498   1.903   2.052   0.158  0.0311 -0.6770  0.3684
   85DMF     N1 1499   2.015   2.125   0.099 -0.5946 -0.4116  0.2094
   85DMF     C2 1500   2.076   2.068  -0.027  0.4243  0.3333 -0.0633
   85DMF     C3 1501   2.069   2.237   0.162 -0.5756  0.5602  0.5831
   85DMF     O1 1502   2.018   2.292   0.257  0.1857  0.0351 -0.6922
   85DMF     H1 1503   1.875   1.967   0.094 -1.4605 -0.4240  0.6593
   85DMF     H2 1504   1.816   2.119   0.164  0.2323 -0.4334  0.5889
   85DMF     H3 1505   1.928   2.023   0.261 -3.1425 -0.4074  1.2845
   85DMF     H4 1506   2.151   2.135  -0.070 -1.3989  1.9645 -0.7377
   85DMF     H5 1507   2.001   2.026  -0.096 -0.1003 -0.0715  0.7372
   85DMF     H6 1508   2.135   1.983   0.011 -0.6679 -0.8837 -1.0517
   85DMF     H7 1509   2.152   2.275   0.100 -1.0524  2.5114  1.1020
   86DMF     C1 1510   0.198   0.736   1.134 -0.3771 -0.3286  0.0472
   86DMF     N1 1511   0.231   0.594   1.125 -0.6955  0.7518 -0.0801
   86DMF     C2 1512   0.163   0.495   1.212  0.2282 -0.6693 -0.6140
   86DMF     C3 1513   0.334   0.551   1.042  0.1252  0.6546  0.7238
   86DMF     O1 1514   0.397   0.621   0.968  0.6241  0.1976 -0.0115
   86DMF     H1 1515   0.283   0.792   1.175  1.1247 -1.7912 -1.0221
   86DMF     H2 1516   0.123   0.778   1.202  0.9186  3.1321 -0.5532
   86DMF     H3 1517   0.181   0.770   1.030  2.0468  1.6225  0.2338
   86DMF     H4 1518   0.158   0.391   1.177  1.6081 -1.6436  1.9810
   86DMF     H5 1519   0.064   0.536   1.236  1.1787  1.1661  0.2673
   86DMF     H6 1520   0.212   0.483   1.309  0.3460 -1.7622 -0.8020
   86DMF     H7 1521   0.352   0.442   1.047 -3.0420  0.1295  2.2645
   87DMF     C1 1522   2.346   2.035   1.558  0.5301 -0.4641 -0.3269
   87DMF     N1 1523   2.216   1.992   1.483 -0.3273 -0.8707  0.7866
   87DMF     C2 1524   2.117   1.917   1.558 -0.3066 -0.0765 -0.6990
   87DMF     C3 1525   2.203   2.032   1.348  0.6642  0.0808 -0.3111
   87DMF     O1 1526   2.290   2.087   1.286  0.1666 -0.2493  0.2178
   87DMF     H1 1527   2.433   2.057   1.494 -0.3178 -1.4258 -1.8474
   87DMF     H2 1528   2.387   1.967   1.634  1.9560  1.2730  0.5041
   87DMF     H3 1529   2.329   2.126   1.617  0.3938 -0.3115 -0.6041
   87DMF     H4 1530   2.105   1.818   1.512 -3.8209 -0.5780  1.1989
   87DMF     H5 1531   2.018   1.964   1.558  0.6991  2.1130  1.0226
   87DMF     H6 1532   2.154   1.892   1.658  1.2040 -0.2052 -1.2613
   87DMF     H7 1533   2.105   2.002   1.306  0.3336  1.1085 -0.2929
   88DMF     C1 1534   1.486   2.488   0.971  0.2054 -0.0778  0.3452
   88DMF     N1 1535   1.358   2.445   1.043 -0.2608  0.2487 -0.6615
   88DMF     C2 1536   1.287   2.541   1.131 -0.4391 -0.1242 -0.2583
   88DMF     C3 1537   1.304   2.322   1.026 -0.2871  0.7438 -0.5117
   88DMF     O1 1538   1.349   2.243   0.943 -0.4494  0.0874  0.3703
   88DMF     H1 1539   1.545   2.561   1.028  1.9090  0.3127 -1.8479
   88DMF     H2 1540   1.455   2.533   0.876 -1.4426 -3.0997 -0.6063
   88DMF     H3 1541   1.552   2.401   0.964 -0.5879 -0.6895  0.4919
   88DMF     H4 1542   1.329   2.641   1.119  1.1759 -0.5925  1.2648
   88DMF     H5 1543   1.283   2.510   1.236  0.4574 -0.6835 -0.3855
   88DMF     H6 1544   1.182   2.542   1.098 -0.7354  0.6114  0.6882
   88DMF     H7 1545   1.223   2.305   1.100  1.8488  1.1164  1.9767
   89DMF     C1 1546   3.377   1.158   2.933  0.7506 -0.5912  0.3539
   89DMF     N1 1547   3.377   1.274   2.837  1.3192  0.0131 -0.2607
   89DMF     C2 1548   3.247   1.302   2.776  0.4449 -1.0035  0.4441
   89DMF     C3 1549   3.465   1.373   2.851 -0.6914  0.2925  0.3598
   89DMF     O1 1550   3.563   1.367   2.924  0.4193  0.1543  0.3857
   89DMF     H1 1551   3.432   1.198   3.019 -0.0018  1.6425 -0.1490
   89DMF     H2 1552   3.430   1.070   2.894 -0.9265 -0.4033 -2.5101
   89DMF     H3 1553   3.274   1.126   2.954 -0.0628  1.3632 -0.5244
   89DMF     H4 1554   3.195   1.218   2.728 -0.9707 -0.1131  0.3884
   89DMF     H5 1555   3.248   1.380   2.698 -1.5272 -2.2210 -0.8542
   89DMF     H6 1556   3.164   1.330   2.841 -2.0788 -4.3755 -1.1886
   89DMF     H7 1557   3.438   1.456   2.784 -0.6579 -0.6384 -0.8097
   90DMF     C1 1558   2.669   2.492   1.313  0.0573 -0.5143  0.1456
   90DMF     N1 1559   2.603   2.492   1.454 -0.4124 -0.2692  0.2883
   90DMF     C2 1560   2.509   2.387   1.481  0.2504  0.1274 -0.5475
   90DMF     C3 1561   2.625   2.601   1.538 -0.1930  0.6617 -0.3884
   90DMF     O1 1562   2.701   2.689   1.499 -0.2659 -0.3166  0.0321
   90DMF     H1 1563   2.778   2.497   1.324  0.1073 -0.1857 -0.4645
   90DMF     H2 1564   2.640   2.586   1.264  0.0181  0.4298  1.9199
   90DMF     H3 1565   2.643   2.406   1.250 -0.9035 -0.1327  0.0026
   90DMF     H4 1566   2.415   2.426   1.440  0.0738 -1.5795 -1.7737
   90DMF     H5 1567   2.515   2.362   1.588 -1.3288  1.3369 -0.1616
   90DMF     H6 1568   2.545   2.295   1.435  0.0995 -0.5844  0.7315
   90DMF     H7 1569   2.577   2.590   1.637  0.8062  2.3175  0.3010
   91DMF     C1 1570   0.418   0.396   3.698 -0.1129  0.4358 -0.3631
   91DMF     N1 1571   0.538   0.477   3.736  0.0722  0.3731  0.2844
   91DMF     C2 1572   0.667   0.407   3.743  0.4650  0.3278 -0.3323
   91DMF     C3 1573   0.531   0.615   3.745  0.3809 -0.0076  0.4224
   91DMF     O1 1574   0.429   0.675   3.721  0.0718  0.1565  0.2514
   91DMF     H1 1575   0.377   0.344   3.785 -0.5490  1.0028 -0.2272
   91DMF     H2 1576   0.448   0.321   3.623 -0.0522 -0.9070  0.9827
   91DMF     H3 1577   0.345   0.461   3.648 -0.3878 -0.3687 -1.0245
   91DMF     H4 1578   0.705   0.415   3.846 -2.1214  0.7291  0.6230
   91DMF     H5 1579   0.741   0.454   3.677  1.4833  0.7975  1.1182
   91DMF     H6 1580   0.652   0.305   3.708 -1.3132  0.5952 -0.3977
   91DMF     H7 1581   0.631   0.655   3.772 -0.3645  1.4941  0.9830
   92DMF     C1 1582   2.914   2.565   3.196  0.1034  0.1591  0.4208
   92DMF     N1 1583   2.971   2.546   3.062  0.5753 -0.0645  0.6658
   92DMF     C2 1584   2.922   2.642   2.956  0.0393  0.0774 -0.2395
   92DMF     C3 1585   3.053   2.445   3.031 -0.6793 -0.0150 -0.3971
   92DMF     O1 1586   3.082   2.361   3.111 -0.1230 -0.0946 -0.3338
   92DMF     H1 1587   2.928   2.671   3.220 -0.3862  0.7230 -1.6714
   92DMF     H2 1588   2.969   2.502   3.267 -1.8527 -4.1584 -1.7208
   92DMF     H3 1589   2.809   2.537   3.202  0.6861 -1.7903  1.9470
   92DMF     H4 1590   2.819   2.666   2.985 -0.7880 -2.0087 -1.3381
   92DMF     H5 1591   2.906   2.596   2.857  0.9779  1.0872 -0.8736
   92DMF     H6 1592   2.985   2.732   2.961  0.6651 -0.1696 -2.7048
   92DMF     H7 1593   3.068   2.449   2.922  0.4604 -0.1487 -0.2487
   93DMF     C1 1594   1.887   2.611   1.572  0.0246 -0.4592  0.0908
   93DMF     N1 1595   1.928   2.744   1.543  0.3955 -0.6814 -0.6078
   93DMF     C2 1596   1.826   2.851   1.549 -0.6234 -0.2171  0.0063
   93DMF     C3 1597   2.062   2.778   1.554  0.2131  0.5362  0.0552
   93DMF     O1 1598   2.148   2.696   1.564  0.3667 -0.3284 -0.4064
   93DMF     H1 1599   1.871   2.565   1.474  0.8223 -1.2757  0.3347
   93DMF     H2 1600   1.796   2.617   1.633 -0.1436 -1.7330 -0.0289
   93DMF     H3 1601   1.965   2.563   1.632  1.2779  0.9260 -0.4007
   93DMF     H4 1602   1.778   2.827   1.454 -0.8885  0.0675  0.0669
   93DMF     H5 1603   1.860   2.956   1.558  1.6546 -1.0277  1.5010
   93DMF     H6 1604   1.749   2.819   1.620  1.5187 -1.2263  1.9677
   93DMF     H7 1605   2.082   2.886   1.540  0.9140  0.3877 -0.1193
   94DMF     C1 1606   0.719   1.561   0.283 -0.2552 -0.4107 -0.2269
   94DMF     N1 1607   0.755   1.565   0.142 -0.1029 -0.0638  0.3375
   94DMF     C2 1608   0.652   1.605   0.045  0.2432 -0.8166 -0.8100
   94DMF     C3 1609   0.878   1.536   0.091 -0.3127 -0.5455  0.2163
   94DMF     O1 1610   0.970   1.479   0.155 -0.3259 -0.4354 -0.0641
   94DMF     H1 1611   0.613   1.573   0.309  0.2536  0.3659  1.5835
   94DMF     H2 1612   0.760   1.655   0.323 -2.1487  1.2653 -2.1079
   94DMF     H3 1613   0.751   1.476   0.344  2.0941  2.1347  2.2911
   94DMF     H4 1614   0.577   1.659   0.103  0.2702 -1.0514 -0.5581
   94DMF     H5 1615   0.607   1.521  -0.010 -0.0256 -2.1741  1.4498
   94DMF     H6 1616   0.690   1.674  -0.031 -0.7153 -0.3064 -0.8313
   94DMF     H7 1617   0.876   1.557  -0.017 -0.7982  1.7603  0.6511
   95DMF     C1 1618   1.867   2.643   2.260 -0.1371 -0.4242  0.0689
   95DMF     N1 1619   2.007   2.596   2.233 -0.4500 -0.5367 -0.3131
   95DMF     C2 1620   2.028   2.446   2.244  0.4141 -0.5354 -0.1141
   95DMF     C3 1621   2.110   2.690   2.212 -0.2052  0.1821 -0.1280
   95DMF     O1 1622   2.095   2.810   2.223 -0.0539  0.1295 -0.6383
   95DMF     H1 1623   1.827   2.588   2.346  0.6117  1.2113  1.5028
   95DMF     H2 1624   1.800   2.634   2.173 -0.2451  0.4426  0.0585
   95DMF     H3 1625   1.864   2.748   2.292 -0.1757 -0.0527 -1.1360
   95DMF     H4 1626   2.015   2.409   2.346 -1.7533  1.2388  0.2843
   95DMF     H5 1627   2.123   2.413   2.199  1.1622 -0.5112  1.3974
   95DMF     H6 1628   1.953   2.393   2.185 -0.1900  1.6901 -1.4042
   95DMF     H7 1629   2.208   2.646   2.185 -1.2838 -1.0043 -2.1885
   96DMF     C1 1630   1.742   0.499   2.270  0.3003  0.4449 -0.0336
   96DMF     N1 1631   1.624   0.411   2.250 -0.7983  0.6310  0.2578
   96DMF     C2 1632   1.642   0.266   2.264 -0.4411 -0.0387  0.3241
   96DMF     C3 1633   1.496   0.458   2.235  0.2784  0.5995 -0.1768
   96DMF     O1 1634   1.475   0.574   2.220 -0.1134  0.3997  0.3888
   96DMF     H1 1635   1.840   0.450   2.264  1.0763  1.8450  0.7633
   96DMF     H2 1636   1.719   0.541   2.369  1.2979  1.5434 -0.2569
   96DMF     H3 1637   1.746   0.581   2.198 -0.0315  0.6441  0.1712
   96DMF     H4 1638   1.615   0.238   2.367 -1.5773  1.9107  0.5795
   96DMF     H5 1639   1.746   0.244   2.240 -0.7542 -0.6053 -0.5140
   96DMF     H6 1640   1.580   0.216   2.188  0.2740  0.4458 -0.5824
   96DMF     H7 1641   1.422   0.375   2.234 -0.0029  0.8044  1.7202
   97DMF     C1 1642   2.712   0.835   2.487 -0.3545 -0.8731  0.1780
   97DMF     N1 1643   2.583   0.875   2.430  0.2626  0.2511  0.5776
   97DMF     C2 1644   2.457   0.879   2.500  0.4293 -0.1420 -0.2102
   97DMF     C3 1645   2.587   0.909   2.291 -0.1813 -0.0412 -0.9477
   97DMF     O1 1646   2.693   0.896   2.229 -0.3004  0.2213 -0.0202
   97DMF     H1 1647   2.724   0.806   2.592  1.9219  0.5845  0.3360
   97DMF     H2 1648   2.778   0.922   2.479  0.3962 -1.4045  0.4542
   97DMF     H3 1649   2.746   0.750   2.427 -0.1718 -0.0761 -0.8481
   97DMF     H4 1650   2.400   0.963   2.460  0.4263  0.0217  0.1374
   97DMF     H5 1651   2.459   0.897   2.608 -1.4488 -0.3750 -0.1198
   97DMF     H6 1652   2.395   0.791   2.479  0.7724 -0.3586 -0.3228
   97DMF     H7 1653   2.494   0.949   2.247  1.6167  1.6449 -3.3188
   98DMF     C1 1654   1.843   1.303   1.584  0.8321 -0.3635  0.1772
   98DMF     N1 1655   1.960   1.356   1.507 -0.2606  0.8927  0.5598
   98DMF     C2 1656   2.039   1.466   1.563  1.0805 -0.1386 -0.9981
   98DMF     C3 1657   1.995   1.304   1.374  1.3666  0.0240 -0.2220
   98DMF     O1 1658   1.948   1.201   1.337  0.3853  0.2338  0.5335
   98DMF     H1 1659   1.759   1.289   1.515 -0.6787 -0.6689  2.0436
   98DMF     H2 1660   1.822   1.388   1.649  0.9320  0.1351 -0.4377
   98DMF     H3 1661   1.877   1.212   1.636 -0.2193 -0.1183  1.3053
   98DMF     H4 1662   2.066   1.544   1.491 -0.8891 -0.0867 -1.7135
   98DMF     H5 1663   2.134   1.431   1.606  0.0222 -1.3730  0.3910
   98DMF     H6 1664   1.977   1.518   1.636  1.1681  2.0359 -2.4414
   98DMF     H7 1665   2.075   1.366   1.329  0.1524  1.0395 -1.0142
   99DMF     C1 1666   0.156   2.671   3.637  0.4370  1.0900  0.6142
   99DMF     N1 1667   0.098   2.563   3.721 -0.5994  0.0127  0.3469
   99DMF     C2 1668   0.133   2.563   3.874 -0.2197 -0.4522  0.1577
   99DMF     C3 1669   0.051   2.448   3.662 -0.0207 -0.2297 -0.8230
   99DMF     O1 1670   0.053   2.431   3.542  0.0408 -0.0359 -0.8812
   99DMF     H1 1671   0.194   2.631   3.541 -2.6365  1.1488 -0.6808
   99DMF     H2 1672   0.234   2.721   3.696  0.4821  1.3069  0.3741
   99DMF     H3 1673   0.076   2.745   3.624 -2.3841 -2.2609 -2.1734
   99DMF     H4 1674   0.086   2.648   3.925  2.6349  0.1296  1.9454
   99DMF     H5 1675   0.238   2.586   3.893 -0.1253  0.9098 -1.8743
   99DMF     H6 1676   0.087   2.479   3.927  0.4532 -0.1236  1.2648
   99DMF     H7 1677   0.010   2.369   3.728 -0.6900 -0.1841 -1.1764
  100DMF     C1 1678   2.742   1.522   3.297  0.1315  0.4881  0.0930
  100DMF     N1 1679   2.740   1.524   3.147  0.0838 -0.1049  0.2686
  100DMF     C2 1680   2.657   1.433   3.072 -0.3082  0.1125 -0.1319
  100DMF     C3 1681   2.804   1.633   3.078 -0.0579 -0.2023  0.2097
  100DMF     O1 1682   2.871   1.716   3.127 -0.0683 -0.0177  0.0889
  100DMF     H1 1683   2.692   1.431   3.331 -0.8686  0.9701 -0.0760
  100DMF     H2 1684   2.706   1.617   3.339  1.9736  0.8727  0.8836
  100DMF     H3 1685   2.849   1.519   3.323  0.4767 -0.3566 -1.3317
  100DMF     H4 1686   2.553   1.466   3.055  0.6038  2.4151 -1.3601
  100DMF     H5 1687   2.653   1.343   3.136  0.0987 -0.6679 -1.1857
  100DMF     H6 1688   2.696   1.412   2.972 -0.1253 -0.3577  0.0351
  100DMF     H7 1689   2.782   1.636   2.970  0.9976 -0.1823 -0.0072
  101DMF     C1 1690   0.176   0.367   2.241 -0.5001  0.7440 -0.7289
  101DMF     N1 1691   0.025   0.384   2.241  0.0542  0.5893  0.5073
  101DMF     C2 1692  -0.057   0.268   2.237  0.2551 -0.3533  0.4361
  101DMF     C3 1693  -0.031   0.510   2.271 -0.0531 -0.0329  0.0436
  101DMF     O1 1694   0.037   0.603   2.307  0.4230  0.0967  0.2815
  101DMF     H1 1695   0.220   0.457   2.196  1.5111  0.0362 -0.2702
  101DMF     H2 1696   0.209   0.281   2.182 -1.6419  1.3293 -2.2369
  101DMF     H3 1697   0.204   0.362   2.347 -1.6688  1.8265 -0.3628
  101DMF     H4 1698  -0.133   0.284   2.160 -0.6412 -1.2466  1.1257
  101DMF     H5 1699  -0.105   0.252   2.334 -0.9162 -0.3910 -0.1467
  101DMF     H6 1700   0.008   0.185   2.207  1.4263  0.3598  0.9689
  101DMF     H7 1701  -0.142   0.511   2.272 -0.0681  2.3953 -1.2202
  102DMF     C1 1702   0.864   2.739   3.460 -0.4634  0.0628 -0.2180
  102DMF     N1 1703   0.716   2.748   3.445  0.1101 -0.4802 -0.6113
  102DMF     C2 1704   0.658   2.755   3.312 -0.2175 -0.0498  0.8533
  102DMF     C3 1705   0.637   2.776   3.559  0.4437  0.0896 -0.3262
  102DMF     O1 1706   0.690   2.799   3.673  0.2567 -0.0032 -0.0106
  102DMF     H1 1707   0.888   2.645   3.509 -1.7059 -0.1470  0.0090
  102DMF     H2 1708   0.905   2.830   3.507  1.0344 -0.6256 -0.1700
  102DMF     H3 1709   0.908   2.718   3.362  0.6760  1.6835 -0.0757
  102DMF     H4 1710   0.566   2.814   3.307 -2.0942 -2.7475  2.2060
  102DMF     H5 1711   0.658   2.654   3.270 -0.7282 -0.3116  1.4662
  102DMF     H6 1712   0.727   2.809   3.246 -0.6453 -0.2084  0.2760
  102DMF     H7 1713   0.530   2.774   3.530  0.5804 -0.0027 -0.8326
  103DMF     C1 1714   1.730   0.672   0.968 -0.4619 -0.6512  0.4741
  103DMF     N1 1715   1.879   0.643   0.967 -0.2608  0.3727 -0.4226
  103DMF     C2 1716   1.928   0.532   0.886 -0.1257  0.3416 -0.5821
  103DMF     C3 1717   1.967   0.719   1.037  0.8197 -0.5583  0.4608
  103DMF     O1 1718   1.932   0.812   1.109 -0.3710  0.0569  0.0055
  103DMF     H1 1719   1.697   0.749   0.898 -0.3930  1.8393  3.1198
  103DMF     H2 1720   1.708   0.709   1.069 -0.8981 -0.2187  0.2205
  103DMF     H3 1721   1.674   0.582   0.941 -1.9939  1.1801 -2.5892
  103DMF     H4 1722   1.865   0.519   0.797 -1.6848  0.0894  0.5416
  103DMF     H5 1723   1.928   0.444   0.951  0.7123  0.0965 -0.8972
  103DMF     H6 1724   2.028   0.548   0.845  0.2228  1.5564  0.7243
  103DMF     H7 1725   2.070   0.688   1.011  0.7481 -0.1054 -0.3896
  104DMF     C1 1726   0.466   1.287   0.422 -0.0095 -0.2045 -0.6663
  104DMF     N1 1727   0.494   1.175   0.328  0.1529  0.1209 -0.4550
  104DMF     C2 1728   0.578   1.211   0.216 -0.0230  0.3492 -0.6159
  104DMF     C3 1729   0.425   1.054   0.341 -0.5033  0.1342  0.0989
  104DMF     O1 1730   0.323   1.043   0.408  0.0438  0.0698 -0.8253
  104DMF     H1 1731   0.418   1.245   0.511  0.8317 -0.7252 -0.4432
  104DMF     H2 1732   0.413   1.371   0.377 -0.9410  0.2400  1.2181
  104DMF     H3 1733   0.561   1.317   0.468  0.0045 -1.8312  0.4355
  104DMF     H4 1734   0.644   1.297   0.233  0.4308 -0.1868  0.3892
  104DMF     H5 1735   0.508   1.235   0.135  1.3612  0.9895 -1.6385
  104DMF     H6 1736   0.636   1.122   0.188 -0.8213 -0.9510  1.7477
  104DMF     H7 1737   0.469   0.965   0.292  1.5518  1.1653  0.0335
  105DMF     C1 1738   2.877   1.630   0.997  0.2544  0.6845 -0.3302
  105DMF     N1 1739   2.870   1.498   0.932  0.0108  0.0509 -0.0198
  105DMF     C2 1740   2.979   1.439   0.855  0.1661  0.3774  0.4990
  105DMF     C3 1741   2.757   1.419   0.959 -0.4261  0.3681  0.1107
  105DMF     O1 1742   2.679   1.439   1.049  0.3055 -0.2112  0.3519
  105DMF     H1 1743   2.940   1.689   0.931 -0.3065 -0.0656 -1.5586
  105DMF     H2 1744   2.929   1.613   1.092 -0.9176 -0.1538  0.1827
  105DMF     H3 1745   2.780   1.679   1.011 -0.6999 -1.3437  0.4177
  105DMF     H4 1746   3.059   1.425   0.929  1.4118  1.9543 -0.5064
  105DMF     H5 1747   3.012   1.514   0.781  0.4454  0.5583  0.8074
  105DMF     H6 1748   2.962   1.349   0.795  0.0950 -0.0651  1.1905
  105DMF     H7 1749   2.745   1.334   0.888 -0.5790 -1.0578  1.8058
  106DMF     C1 1750   3.146   2.275   2.295 -0.0034  0.1570 -0.0219
  106DMF     N1 1751   3.257   2.196   2.241 -0.1403 -0.0542 -0.1285
  106DMF     C2 1752   3.238   2.061   2.233  0.8102  0.3408 -0.2401
  106DMF     C3 1753   3.385   2.251   2.243  0.3567 -0.6402 -0.4694
  106DMF     O1 1754   3.403   2.367   2.271  0.6676 -0.0706  0.1992
  106DMF     H1 1755   3.062   2.211   2.325  1.1924 -0.9779  0.9486
  106DMF     H2 1756   3.112   2.344   2.216  0.1004  2.2715  1.7201
  106DMF     H3 1757   3.182   2.322   2.387  2.7780 -1.6305 -0.1357
  106DMF     H4 1758   3.297   2.024   2.148  0.1158  0.3813 -0.7420
  106DMF     H5 1759   3.135   2.040   2.202  0.5931 -0.9019  1.2311
  106DMF     H6 1760   3.261   2.022   2.333  1.3032 -1.3348 -1.0043
  106DMF     H7 1761   3.463   2.178   2.217  0.4423 -0.4616 -0.7207
  107DMF     C1 1762   2.882   0.023   3.584  0.2750 -0.5617 -0.3914
  107DMF     N1 1763   2.760   0.064   3.513  0.5380  0.1542  0.0112
  107DMF     C2 1764   2.765   0.067   3.364  0.4019  0.9357  0.7536
  107DMF     C3 1765   2.663   0.132   3.582 -0.1589 -0.0169 -0.1777
  107DMF     O1 1766   2.669   0.146   3.704 -0.5185 -0.2523 -0.5278
  107DMF     H1 1767   2.859  -0.042   3.669  0.4650 -1.3975 -0.9816
  107DMF     H2 1768   2.928   0.116   3.621 -1.1457 -0.6316  1.6060
  107DMF     H3 1769   2.949  -0.036   3.521  2.1283  0.6967  0.3304
  107DMF     H4 1770   2.868   0.046   3.334  0.8123  3.2190  0.4904
  107DMF     H5 1771   2.738   0.167   3.327 -1.1135  0.6278  1.0040
  107DMF     H6 1772   2.696  -0.007   3.321  0.5240  1.6150 -0.6585
  107DMF     H7 1773   2.591   0.169   3.506 -0.2047 -2.1190 -1.1897
  108DMF     C1 1774   2.364   1.314   3.648 -0.5648  0.7389  0.4893
  108DMF     N1 1775   2.350   1.419   3.539 -0.3973  0.4260  0.2409
  108DMF     C2 1776   2.395   1.395   3.400  0.2287 -0.4334  0.1729
  108DMF     C3 1777   2.308   1.543   3.576  0.4225  0.2073 -0.6586
  108DMF     O1 1778   2.291   1.576   3.697 -0.0873 -0.0378  0.2823
  108DMF     H1 1779   2.271   1.263   3.677 -2.1057  4.1883  1.8452
  108DMF     H2 1780   2.408   1.352   3.741  1.2921  1.2993 -0.5858
  108DMF     H3 1781   2.438   1.243   3.608 -3.1596 -1.4075 -0.6532
  108DMF     H4 1782   2.491   1.446   3.381 -0.5242  0.2765 -1.8030
  108DMF     H5 1783   2.327   1.441   3.328  1.7106  0.1295 -0.9090
  108DMF     H6 1784   2.400   1.288   3.378 -1.6755 -0.4370 -0.3167
  108DMF     H7 1785   2.293   1.616   3.494 -2.4989 -0.6864 -0.9629
  109DMF     C1 1786   1.410   1.789   3.139 -0.0529 -0.1456  0.5844
  109DMF     N1 1787   1.498   1.785   3.256 -0.2520  0.0014  0.4279
  109DMF     C2 1788   1.451   1.842   3.380 -0.2941 -0.4202 -0.1008
  109DMF     C3 1789   1.601   1.689   3.264 -0.0219 -0.2600 -0.1503
  109DMF     O1 1790   1.639   1.626   3.166 -0.1187 -0.3803 -0.0250
  109DMF     H1 1791   1.383   1.894   3.129 -0.7104 -0.4006 -0.3561
  109DMF     H2 1792   1.317   1.732   3.155 -0.5042 -0.2882 -2.3228
  109DMF     H3 1793   1.460   1.763   3.045  1.7787 -1.2482  1.8270
  109DMF     H4 1794   1.403   1.938   3.358 -1.9689 -1.5184 -1.2930
  109DMF     H5 1795   1.532   1.852   3.454 -0.9630 -1.0161  0.7233
  109DMF     H6 1796   1.377   1.774   3.426  0.6038 -2.3376 -1.4520
  109DMF     H7 1797   1.655   1.688   3.360  0.1754  0.1819 -0.2549
  110DMF     C1 1798   2.436   1.878   3.684 -0.4928 -0.1073 -0.2031
  110DMF     N1 1799   2.556   1.892   3.607  0.1124  0.1039 -0.1045
  110DMF     C2 1800   2.646   1.995   3.650  0.0963 -0.2431 -0.2243
  110DMF     C3 1801   2.583   1.809   3.500 -0.0358 -0.1495 -0.0808
  110DMF     O1 1802   2.497   1.747   3.442  0.5652  0.7022  0.1684
  110DMF     H1 1803   2.466   1.840   3.783 -0.4628  0.6295  0.0735
  110DMF     H2 1804   2.353   1.821   3.639 -0.4658 -0.4207  0.1345
  110DMF     H3 1805   2.408   1.982   3.702  1.1484  0.0103  1.8475
  110DMF     H4 1806   2.606   2.073   3.716 -0.1236 -1.2459  0.8460
  110DMF     H5 1807   2.694   2.038   3.561 -1.8419  0.1445 -1.1290
  110DMF     H6 1808   2.728   1.946   3.703  0.8421  0.3821 -0.7768
  110DMF     H7 1809   2.687   1.829   3.469 -0.7497  1.3839 -1.5561
  111DMF     C1 1810   1.183   2.469   2.835  0.3286  0.9014 -0.0396
  111DMF     N1 1811   1.103   2.468   2.713  0.4515  0.9368 -0.5754
  111DMF     C2 1812   1.169   2.532   2.596  0.0526 -0.1207  0.5343
  111DMF     C3 1813   0.969   2.426   2.708  0.4528  0.6119  0.9968
  111DMF     O1 1814   0.916   2.370   2.801  0.6399 -0.1343 -0.0686
  111DMF     H1 1815   1.288   2.497   2.818 -0.0410  3.2975  1.3194
  111DMF     H2 1816   1.178   2.371   2.884  0.4604  0.1149 -1.5799
  111DMF     H3 1817   1.143   2.539   2.909  2.3544  0.8550  1.1290
  111DMF     H4 1818   1.093   2.602   2.561  0.2307 -1.4272 -2.7006
  111DMF     H5 1819   1.193   2.457   2.519  0.4517 -0.2425  0.7727
  111DMF     H6 1820   1.250   2.598   2.630  0.9983 -1.5356  1.0620
  111DMF     H7 1821   0.920   2.449   2.611  0.1644  0.1788  1.0428
  112DMF     C1 1822   1.143   1.037   1.021 -0.3134  0.0541  0.0677
  112DMF     N1 1823   1.173   1.182   1.024 -0.0362  0.5356 -0.4063
  112DMF     C2 1824   1.162   1.261   0.902 -0.0928 -0.6644  0.1481
  112DMF     C3 1825   1.250   1.235   1.126 -0.5435 -0.4165 -0.3513
  112DMF     O1 1826   1.275   1.170   1.225 -0.1837 -0.3534  0.4261
  112DMF     H1 1827   1.052   1.015   1.078  0.0251  1.2408  1.0806
  112DMF     H2 1828   1.222   0.971   1.059 -2.3424 -1.6763  1.3914
  112DMF     H3 1829   1.119   1.013   0.916 -1.1689  3.6469 -0.6189
  112DMF     H4 1830   1.231   1.346   0.911  0.6729 -1.3196  0.4466
  112DMF     H5 1831   1.056   1.283   0.882 -1.1563 -2.8005  3.1311
  112DMF     H6 1832   1.182   1.197   0.815 -1.7261 -1.2549  0.1935
  112DMF     H7 1833   1.294   1.336   1.115  0.0397 -0.3329  2.5121
  113DMF     C1 1834   0.912   0.165   2.344  0.2572 -0.8117  0.6229
  113DMF     N1 1835   0.897   0.296   2.288 -0.1450  0.2323 -0.4201
  113DMF     C2 1836   0.760   0.352   2.283 -0.0627 -0.1102 -0.0379
  113DMF     C3 1837   1.005   0.357   2.224  0.1469 -0.1139  0.7787
  113DMF     O1 1838   1.119   0.304   2.225 -0.3412  0.5965  0.0687
  113DMF     H1 1839   0.985   0.104   2.288 -0.2568 -1.4694  0.6677
  113DMF     H2 1840   0.816   0.114   2.356 -1.2606  1.7670 -0.3396
  113DMF     H3 1841   0.957   0.179   2.443  0.3789 -0.5045  0.5257
  113DMF     H4 1842   0.741   0.416   2.370  0.3719  0.3408 -0.2678
  113DMF     H5 1843   0.684   0.275   2.268 -0.7594  0.7805 -1.1790
  113DMF     H6 1844   0.764   0.424   2.200  0.5274 -1.1008 -0.8957
  113DMF     H7 1845   0.982   0.459   2.191  1.1895 -1.0703 -3.1706
  114DMF     C1 1846   0.854   2.186   0.416  0.4543  0.4723  0.0476
  114DMF     N1 1847   0.999   2.192   0.401  0.0725  0.2487 -0.3250
  114DMF     C2 1848   1.073   2.092   0.323 -0.2923  0.4638  0.4175
  114DMF     C3 1849   1.063   2.299   0.467 -0.1132  0.4386 -0.2550
  114DMF     O1 1850   1.001   2.384   0.529 -0.3963 -0.1400 -0.7164
  114DMF     H1 1851   0.817   2.085   0.399 -2.0211  1.2373  0.6613
  114DMF     H2 1852   0.794   2.266   0.371 -2.0396 -2.2474 -1.6514
  114DMF     H3 1853   0.829   2.192   0.523  1.4382  0.6873  0.2778
  114DMF     H4 1854   1.179   2.099   0.350  0.4352 -1.2357 -1.8324
  114DMF     H5 1855   1.059   2.120   0.217  2.4445 -2.2773 -0.7386
  114DMF     H6 1856   1.037   1.989   0.332  2.6129 -1.0188 -3.4835
  114DMF     H7 1857   1.173   2.300   0.455 -0.2012  2.1146 -1.0582
  115DMF     C1 1858   0.162   1.964   3.623  0.0748  1.0160  0.2806
  115DMF     N1 1859   0.196   1.834   3.557  0.0054  0.2238 -0.0695
  115DMF     C2 1860   0.093   1.727   3.558 -0.2458 -1.0856 -0.0512
  115DMF     C3 1861   0.321   1.806   3.512 -0.1481  0.0940  0.6647
  115DMF     O1 1862   0.413   1.887   3.514  0.3386  0.5024  0.4216
  115DMF     H1 1863   0.217   1.964   3.718 -0.0063  1.5310  0.3261
  115DMF     H2 1864   0.053   1.975   3.617  0.3880  3.6489 -1.4008
  115DMF     H3 1865   0.201   2.046   3.562 -0.9148  0.8440 -0.5909
  115DMF     H4 1866   0.092   1.693   3.454 -0.9949  0.5052 -0.5700
  115DMF     H5 1867  -0.003   1.765   3.593  1.0055  3.8532 -1.6082
  115DMF     H6 1868   0.131   1.640   3.615 -0.0086 -0.9845 -0.0517
  115DMF     H7 1869   0.338   1.700   3.486  0.5294  0.6196 -1.1140
  116DMF     C1 1870   0.353   0.245   0.853  0.4672 -0.3055  0.0161
  116DMF     N1 1871   0.354   0.114   0.919  0.2998  0.1063 -0.5743
  116DMF     C2 1872   0.328  -0.009   0.840 -0.3895 -0.2277 -0.7563
  116DMF     C3 1873   0.392   0.100   1.049 -0.3399  0.2318 -0.3504
  116DMF     O1 1874   0.410   0.201   1.120 -0.0899 -0.1668 -0.5703
  116DMF     H1 1875   0.445   0.297   0.882 -0.1764  1.6578 -1.3345
  116DMF     H2 1876   0.265   0.299   0.891  0.3215 -2.1346  2.4526
  116DMF     H3 1877   0.345   0.244   0.744  1.3501  0.3064 -0.0523
  116DMF     H4 1878   0.227   0.006   0.802 -1.2325  0.7899  1.7789
  116DMF     H5 1879   0.324  -0.101   0.900 -0.2808  0.8999  1.0274
  116DMF     H6 1880   0.404  -0.014   0.762 -1.3168  1.3418 -1.7816
  116DMF     H7 1881   0.392   0.001   1.098 -1.3647 -0.1108 -1.0305
  117DMF     C1 1882   0.062   0.723   1.547  0.2125  0.0044 -0.3228
  117DMF     N1 1883   0.204   0.766   1.562  0.0883 -0.1461 -0.4624
  117DMF     C2 1884   0.236   0.907   1.542 -0.5297  0.1707  0.5916
  117DMF     C3 1885   0.312   0.663   1.564 -0.0726  0.2951 -0.0419
  117DMF     O1 1886   0.282   0.548   1.555 -1.3027  0.8630 -0.4178
  117DMF     H1 1887   0.035   0.637   1.609  2.3452 -0.4632 -0.0315
  117DMF     H2 1888   0.048   0.692   1.443 -3.4263 -1.6510  0.5992
  117DMF     H3 1889  -0.002   0.809   1.573  0.2130  1.3795 -4.5672
  117DMF     H4 1890   0.267   0.925   1.438 -2.2399 -3.2814 -0.5584
  117DMF     H5 1891   0.317   0.936   1.609 -0.2862 -1.7209  1.1232
  117DMF     H6 1892   0.150   0.969   1.571 -1.5408 -0.4563 -0.9738
  117DMF     H7 1893   0.412   0.709   1.568 -0.4440  0.9760  2.1745
  118DMF     C1 1894   3.044   0.781   2.751  0.2184 -0.2811 -0.1615
  118DMF     N1 1895   3.045   0.663   2.828 -0.1459 -0.0246  0.4376
  118DMF     C2 1896   2.985   0.666   2.963 -0.4969 -0.5921  0.0835
  118DMF     C3 1897   3.113   0.549   2.776  0.0026 -0.6253 -0.4912
  118DMF     O1 1898   3.159   0.542   2.668 -0.7138  0.2740  0.2648
  118DMF     H1 1899   3.060   0.758   2.645 -3.4119  1.0514 -1.0709
  118DMF     H2 1900   3.126   0.843   2.789  1.2577 -3.7663  3.6020
  118DMF     H3 1901   2.948   0.834   2.757  0.5066  0.1446  0.8137
  118DMF     H4 1902   2.956   0.564   2.989 -1.6124 -0.6429 -1.2751
  118DMF     H5 1903   2.897   0.731   2.970  0.5649  0.8132  0.6525
  118DMF     H6 1904   3.052   0.710   3.037 -1.9345  1.1089  0.4130
  118DMF     H7 1905   3.116   0.472   2.855  0.3484 -0.7636 -0.6369
  119DMF     C1 1906   0.769   1.667   0.693  0.6769 -0.0475  0.0322
  119DMF     N1 1907   0.747   1.813   0.708  1.1478 -1.1371  0.1728
  119DMF     C2 1908   0.694   1.865   0.841  0.2699 -0.2155 -0.0033
  119DMF     C3 1909   0.796   1.906   0.609 -0.9516 -0.2899  0.7576
  119DMF     O1 1910   0.836   1.864   0.498  0.4803  0.3272 -0.0928
  119DMF     H1 1911   0.876   1.648   0.702  0.6491 -0.8242 -1.1936
  119DMF     H2 1912   0.729   1.631   0.598 -0.6882  0.3553  0.4382
  119DMF     H3 1913   0.711   1.622   0.775  1.1313 -0.6295  0.0378
  119DMF     H4 1914   0.597   1.916   0.841 -0.3922 -1.4122 -1.1049
  119DMF     H5 1915   0.774   1.928   0.881 -0.2997  0.9756 -0.7087
  119DMF     H6 1916   0.681   1.779   0.908  0.7980 -1.5464 -1.5661
  119DMF     H7 1917   0.783   2.014   0.631 -1.7828 -0.3680  0.6668
  120DMF     C1 1918   3.321   1.958   3.297 -0.1120 -0.7060 -0.1697
  120DMF     N1 1919   3.437   2.028   3.322  0.7537 -0.2072 -0.2231
  120DMF     C2 1920   3.425   2.158   3.386 -0.1012  0.0304  0.7580
  120DMF     C3 1921   3.558   1.975   3.280 -1.1284 -0.1316 -0.1411
  120DMF     O1 1922   3.564   1.862   3.232 -0.2278  0.4485  0.1968
  120DMF     H1 1923   3.324   1.850   3.311 -2.3241 -0.9537 -1.3979
  120DMF     H2 1924   3.294   1.960   3.191  1.8767 -0.7585 -0.6977
  120DMF     H3 1925   3.242   2.003   3.358  0.6264 -0.6763  0.7871
  120DMF     H4 1926   3.525   2.198   3.406 -0.3251  0.5813  0.7601
  120DMF     H5 1927   3.373   2.142   3.481  0.7815  1.1178  1.4292
  120DMF     H6 1928   3.376   2.230   3.320  2.5576  0.8669 -0.3976
  120DMF     H7 1929   3.644   2.037   3.313 -1.3086 -0.1343  0.3353
  121DMF     C1 1930   2.483   0.497   2.506 -0.6079 -0.2765 -0.2624
  121DMF     N1 1931   2.413   0.385   2.441 -0.7088  0.4069 -0.6690
  121DMF     C2 1932   2.366   0.271   2.521 -0.1039  0.6869  1.2163
  121DMF     C3 1933   2.372   0.396   2.302  0.1547 -0.0362 -0.2686
  121DMF     O1 1934   2.411   0.487   2.230 -0.1415  0.1018  0.2589
  121DMF     H1 1935   2.500   0.580   2.436 -0.9389  1.5358  1.7754
  121DMF     H2 1936   2.578   0.471   2.553 -0.4744 -0.8023 -0.8172
  121DMF     H3 1937   2.419   0.540   2.584 -0.0329 -0.5150  0.3473
  121DMF     H4 1938   2.401   0.178   2.476  0.1251  0.5143  1.7388
  121DMF     H5 1939   2.257   0.258   2.523  0.0709 -1.7294 -2.1841
  121DMF     H6 1940   2.399   0.281   2.626  0.8003 -0.1152  1.0157
  121DMF     H7 1941   2.329   0.304   2.258 -0.8467 -1.4515  3.4347
  122DMF     C1 1942   1.274   1.520   1.556 -0.4351 -0.2057 -0.5256
  122DMF     N1 1943   1.300   1.377   1.537 -0.1229 -0.7433  0.0253
  122DMF     C2 1944   1.190   1.282   1.532  0.9380 -0.2633  0.9217
  122DMF     C3 1945   1.435   1.334   1.521 -0.0454  0.4381  0.6711
  122DMF     O1 1946   1.530   1.412   1.512 -0.3074  0.0468 -0.0521
  122DMF     H1 1947   1.348   1.558   1.627 -0.6626  0.6961 -0.7656
  122DMF     H2 1948   1.182   1.540   1.613 -1.3567 -0.7620 -1.7807
  122DMF     H3 1949   1.262   1.583   1.468 -1.8893  1.2616  0.7009
  122DMF     H4 1950   1.227   1.183   1.502  2.1393  0.6635 -0.7271
  122DMF     H5 1951   1.110   1.315   1.465 -0.0558 -0.0647  2.1681
  122DMF     H6 1952   1.154   1.287   1.636 -1.1467  1.2596  0.1634
  122DMF     H7 1953   1.441   1.225   1.500 -0.0710 -0.3809  4.5303
  123DMF     C1 1954   3.263   3.096   0.236  0.0717 -0.8487  0.0092
  123DMF     N1 1955   3.400   3.044   0.205  0.0403 -0.2665 -0.1025
  123DMF     C2 1956   3.482   3.113   0.099 -0.5768  0.7397 -0.2233
  123DMF     C3 1957   3.448   2.919   0.260 -0.0102 -0.4559 -0.3795
  123DMF     O1 1958   3.381   2.840   0.326  0.5125 -0.7456  0.4904
  123DMF     H1 1959   3.186   3.018   0.250 -1.0317  0.3121  0.5274
  123DMF     H2 1960   3.223   3.166   0.162 -1.4851 -1.5097  0.2022
  123DMF     H3 1961   3.270   3.155   0.328 -0.9835 -0.8103  0.0808
  123DMF     H4 1962   3.424   3.204   0.083 -1.5067  0.6116  2.1010
  123DMF     H5 1963   3.486   3.045   0.013 -1.4019  0.1927  0.1626
  123DMF     H6 1964   3.577   3.141   0.147 -0.5627 -0.9568  0.7947
  123DMF     H7 1965   3.553   2.902   0.231 -0.8885 -2.2623 -2.7343
  124DMF     C1 1966   1.786   2.852   2.867 -0.1563 -1.2157  0.7171
  124DMF     N1 1967   1.918   2.859   2.933  0.1408  0.3736  0.1148
  124DMF     C2 1968   1.954   2.766   3.035  0.2695 -0.2984  0.9163
  124DMF     C3 1969   2.017   2.943   2.875 -0.1980 -0.0122 -0.1779
  124DMF     O1 1970   2.004   2.998   2.772  0.1609 -0.5782  0.0435
  124DMF     H1 1971   1.741   2.952   2.873  1.2845 -0.4808 -0.4782
  124DMF     H2 1972   1.718   2.779   2.913 -0.7162  0.4789  2.6960
  124DMF     H3 1973   1.795   2.821   2.763  0.1682 -1.0374  0.6924
  124DMF     H4 1974   1.874   2.696   3.061 -0.7354  0.6041  0.2901
  124DMF     H5 1975   2.000   2.819   3.120  0.5625 -1.4488  1.4885
  124DMF     H6 1976   2.037   2.707   2.994  1.4599  2.5025 -0.8155
  124DMF     H7 1977   2.112   2.947   2.933 -0.9394  1.6948  0.9607
  125DMF     C1 1978   2.081   1.039   0.603 -0.2450  0.0873  0.1747
  125DMF     N1 1979   2.019   0.997   0.732  0.1155  0.7250  0.0083
  125DMF     C2 1980   2.051   1.061   0.856 -0.1308 -0.5385 -0.5162
  125DMF     C3 1981   1.922   0.896   0.726  1.3387  0.2934 -0.0940
  125DMF     O1 1982   1.864   0.859   0.626  0.9156  0.6323  0.1333
  125DMF     H1 1983   2.146   0.956   0.573 -1.9219 -0.7159 -1.3727
  125DMF     H2 1984   2.147   1.126   0.614  1.0327 -1.0810  1.9746
  125DMF     H3 1985   2.005   1.042   0.524  1.0983  2.5585 -1.1031
  125DMF     H4 1986   2.129   1.001   0.904 -0.9568 -0.9504  0.3472
  125DMF     H5 1987   1.972   1.060   0.933  0.3261 -0.7713 -0.0509
  125DMF     H6 1988   2.089   1.163   0.838 -1.4300  0.3102  1.3595
  125DMF     H7 1989   1.897   0.850   0.823 -0.8859 -0.9682 -1.2199
  126DMF     C1 1990   2.863   0.314   1.256  0.2129  0.5248 -0.6947
  126DMF     N1 1991   2.835   0.281   1.117  0.3659  0.7003  0.3592
  126DMF     C2 1992   2.840   0.390   1.016  0.3358  0.5303 -0.0481
  126DMF     C3 1993   2.784   0.154   1.079  0.5564  1.0415  0.0949
  126DMF     O1 1994   2.768   0.071   1.163 -0.3359 -0.0362  0.0521
  126DMF     H1 1995   2.917   0.233   1.306 -0.8457 -0.6499 -1.4136
  126DMF     H2 1996   2.771   0.323   1.315 -0.0665 -0.9985 -0.8897
  126DMF     H3 1997   2.912   0.412   1.260  1.2078 -0.0111  0.0938
  126DMF     H4 1998   2.744   0.442   1.031 -1.0670 -1.1316 -2.8468
  126DMF     H5 1999   2.829   0.342   0.918 -0.1024 -0.4815  0.4912
  126DMF     H6 2000   2.927   0.456   1.024  1.0523 -0.8292  4.4147
  126DMF     H7 2001   2.764   0.144   0.971  2.2993  2.8231 -0.4158
  127DMF     C1 2002   0.326   0.738   2.325  0.2249 -0.3027  0.0805
  127DMF     N1 2003   0.472   0.770   2.284  0.7858 -0.5645 -0.7740
  127DMF     C2 2004   0.506   0.915   2.260 -1.3237 -0.0791  0.3344
  127DMF     C3 2005   0.555   0.667   2.246  0.1922 -0.1566  0.2530
  127DMF     O1 2006   0.532   0.555   2.269  0.6095  0.0783  0.3814
  127DMF     H1 2007   0.298   0.799   2.412  1.5938 -0.5944  0.7493
  127DMF     H2 2008   0.303   0.637   2.358  0.9760  0.0640  1.7814
  127DMF     H3 2009   0.253   0.753   2.245 -1.0874  0.8332  1.4660
  127DMF     H4 2010   0.514   0.972   2.354  3.7542  1.4963 -0.8883
  127DMF     H5 2011   0.421   0.958   2.205  0.5273 -1.2534 -3.5642
  127DMF     H6 2012   0.593   0.921   2.194 -1.0445  1.1047  0.7959
  127DMF     H7 2013   0.642   0.708   2.192 -0.2455  0.6436  0.1439
  128DMF     C1 2014   1.007   0.068   0.033  0.4427  0.3099  0.0085
  128DMF     N1 2015   1.007   0.018   0.166 -0.1964 -0.9042 -0.4093
  128DMF     C2 2016   1.117  -0.076   0.208  0.6388  0.1128  0.3955
  128DMF     C3 2017   0.908   0.055   0.259  0.8720 -0.6360 -0.8214
  128DMF     O1 2018   0.820   0.134   0.244 -0.2008  0.1346 -0.1073
  128DMF     H1 2019   1.023   0.177   0.041 -1.3403  0.8601 -3.1214
  128DMF     H2 2020   0.908   0.046  -0.009  0.6553  1.1691 -0.9668
  128DMF     H3 2021   1.089   0.041  -0.034  1.0606  0.8344  0.5464
  128DMF     H4 2022   1.196  -0.067   0.132  1.1204 -0.9043  0.7612
  128DMF     H5 2023   1.080  -0.179   0.196 -1.3892  0.9322 -0.6523
  128DMF     H6 2024   1.158  -0.052   0.307 -0.6565 -0.0137  0.9637
  128DMF     H7 2025   0.927   0.004   0.355 -0.1221  0.1216 -0.2185
  129DMF     C1 2026   1.911   0.851   3.298 -0.4556 -0.1363 -0.0579
  129DMF     N1 2027   1.939   0.712   3.250 -0.0361  0.5963  0.3202
  129DMF     C2 2028   1.981   0.699   3.117 -0.7052 -0.3082 -0.2236
  129DMF     C3 2029   1.914   0.607   3.339  0.5966  0.2045  0.5093
  129DMF     O1 2030   1.903   0.622   3.461  0.5340  0.5288 -0.1970
  129DMF     H1 2031   1.924   0.916   3.210 -0.4334  0.1303  0.1405
  129DMF     H2 2032   1.990   0.885   3.366 -0.1483 -0.2518 -0.3565
  129DMF     H3 2033   1.812   0.853   3.345 -0.7068  1.2855 -0.6205
  129DMF     H4 2034   1.967   0.592   3.097 -1.9552 -0.5720  1.9060
  129DMF     H5 2035   2.087   0.722   3.101 -0.9434  0.6479 -0.4602
  129DMF     H6 2036   1.915   0.756   3.050  0.4510  2.0420  0.5985
  129DMF     H7 2037   1.912   0.510   3.286  0.9541 -0.0093  0.8843
  130DMF     C1 2038   3.209   2.089   2.889 -0.6609 -0.1080  0.2257
  130DMF     N1 2039   3.207   2.093   2.738  0.1095  0.1972 -0.3438
  130DMF     C2 2040   3.328   2.044   2.661 -0.3234 -0.5332 -0.1950
  130DMF     C3 2041   3.085   2.104   2.664  0.1886  0.5913  0.0549
  130DMF     O1 2042   2.970   2.124   2.707  0.1432 -0.0864  0.3692
  130DMF     H1 2043   3.188   1.987   2.925  0.0174  0.0550  1.0937
  130DMF     H2 2044   3.139   2.156   2.942  1.0843  1.7506  0.2291
  130DMF     H3 2045   3.312   2.108   2.920 -0.5704 -0.3036  0.0438
  130DMF     H4 2046   3.375   2.128   2.609  2.3271 -0.7394  1.7392
  130DMF     H5 2047   3.305   1.960   2.594 -0.6943 -0.9866  0.4896
  130DMF     H6 2048   3.403   2.023   2.739 -0.2868 -0.7359 -0.2831
  130DMF     H7 2049   3.107   2.087   2.557  1.4732  1.3728  0.1862
  131DMF     C1 2050   1.174   3.314   2.276 -0.8057  0.4535  0.2216
  131DMF     N1 2051   1.305   3.343   2.330 -0.3574 -0.0694 -0.8149
  131DMF     C2 2052   1.380   3.459   2.257  0.4104  0.2866  0.2106
  131DMF     C3 2053   1.351   3.295   2.458  0.1518  0.8538  0.1067
  131DMF     O1 2054   1.295   3.201   2.514  0.0923  0.1848 -0.0486
  131DMF     H1 2055   1.146   3.381   2.195 -1.1480 -0.2016 -0.2061
  131DMF     H2 2056   1.092   3.323   2.349  0.7488 -1.2899  2.2466
  131DMF     H3 2057   1.177   3.210   2.240  0.0102 -0.2120  2.1238
  131DMF     H4 2058   1.312   3.495   2.178  0.4965 -0.6219 -0.2793
  131DMF     H5 2059   1.477   3.429   2.216 -0.4923 -1.4113 -0.7227
  131DMF     H6 2060   1.410   3.533   2.332 -0.8090  0.9191  0.0909
  131DMF     H7 2061   1.448   3.339   2.484  1.5769 -1.7292 -0.6053
  132DMF     C1 2062   2.741   0.803   1.357 -0.0894 -0.1297  0.3967
  132DMF     N1 2063   2.630   0.720   1.417 -0.2433  0.6685 -0.2698
  132DMF     C2 2064   2.598   0.735   1.559  0.2954  0.1533 -0.2883
  132DMF     C3 2065   2.576   0.612   1.346 -0.5453 -0.5022  0.2407
  132DMF     O1 2066   2.608   0.583   1.234 -0.2958  0.1766 -0.4021
  132DMF     H1 2067   2.840   0.760   1.377  0.3832  1.9486  2.8408
  132DMF     H2 2068   2.734   0.905   1.397 -1.0301 -0.5809  1.4162
  132DMF     H3 2069   2.734   0.798   1.248 -0.6407 -0.2445  0.4348
  132DMF     H4 2070   2.604   0.632   1.596 -2.2143 -0.0274 -0.2994
  132DMF     H5 2071   2.498   0.771   1.586  0.5114  1.4467 -1.1843
  132DMF     H6 2072   2.678   0.783   1.617  0.3497 -0.2072 -0.0646
  132DMF     H7 2073   2.490   0.568   1.400  0.1904 -0.4902  1.4330
  133DMF     C1 2074   1.842   3.317   1.560 -0.0922 -0.0020 -0.0233
  133DMF     N1 2075   1.988   3.328   1.555  0.1735  0.0263  0.0738
  133DMF     C2 2076   2.052   3.456   1.570 -0.0557 -0.0951  0.3588
  133DMF     C3 2077   2.065   3.215   1.542  0.4958 -0.3789 -0.4004
  133DMF     O1 2078   2.020   3.113   1.502 -0.0135  0.1872 -0.4661
  133DMF     H1 2079   1.827   3.232   1.627  2.2662 -1.1108 -0.8481
  133DMF     H2 2080   1.797   3.289   1.464  0.3190 -2.9271  0.5745
  133DMF     H3 2081   1.792   3.407   1.599 -0.4672 -0.2272  0.0150
  133DMF     H4 2082   2.058   3.496   1.468 -1.8570  1.1708  0.7285
  133DMF     H5 2083   2.150   3.437   1.616 -0.2510 -2.8724 -0.3306
  133DMF     H6 2084   1.988   3.529   1.622  0.6337  0.4200  0.5038
  133DMF     H7 2085   2.169   3.228   1.575  0.6953 -1.4155 -0.6135
  134DMF     C1 2086   2.303   3.203   3.621 -0.6287 -0.4869  0.4414
  134DMF     N1 2087   2.156   3.190   3.611  0.0392 -0.4446  0.1871
  134DMF     C2 2088   2.099   3.058   3.567  0.6453 -0.4432  0.3917
  134DMF     C3 2089   2.065   3.297   3.629  1.2469 -0.3379 -0.0040
  134DMF     O1 2090   2.102   3.409   3.655 -0.4636  0.1261  0.3698
  134DMF     H1 2091   2.328   3.236   3.722  1.9095 -0.8827 -0.0419
  134DMF     H2 2092   2.340   3.282   3.554  0.3110 -0.0204  1.5014
  134DMF     H3 2093   2.360   3.110   3.608 -0.9280 -0.3851 -1.9118
  134DMF     H4 2094   2.067   3.069   3.463  3.2073  1.2581 -0.2748
  134DMF     H5 2095   2.016   3.034   3.635 -1.0836  2.4201 -0.5960
  134DMF     H6 2096   2.178   2.983   3.575 -0.4401 -1.5283  1.1967
  134DMF     H7 2097   1.958   3.274   3.610  0.9413 -0.8293  2.1787
  135DMF     C1 2098   1.492   0.944   1.092  0.1505  0.0724 -0.5676
  135DMF     N1 2099   1.628   0.973   1.134 -0.0351 -0.2739 -0.6360
  135DMF     C2 2100   1.666   0.943   1.269 -0.2507  0.7338  0.0209
  135DMF     C3 2101   1.725   1.019   1.042  0.4436  0.5182  0.6145
  135DMF     O1 2102   1.705   1.032   0.919 -0.0471  0.5555 -0.1978
  135DMF     H1 2103   1.420   0.957   1.174  2.0018  0.4346  1.0462
  135DMF     H2 2104   1.490   0.837   1.068 -0.2299 -0.1045  0.2405
  135DMF     H3 2105   1.472   0.994   0.997  1.1784 -2.0658 -1.9579
  135DMF     H4 2106   1.709   1.033   1.314 -0.3522  0.6084  0.3728
  135DMF     H5 2107   1.750   0.872   1.265 -1.0093 -0.2494  1.1360
  135DMF     H6 2108   1.584   0.902   1.329 -0.4377  0.2604 -0.5519
  135DMF     H7 2109   1.821   1.053   1.085 -0.2820  0.7121  2.1065
  136DMF     C1 2110   1.388   3.408   1.093 -0.4155 -0.3836 -0.0632
  136DMF     N1 2111   1.420   3.511   0.990  0.8101  0.4974 -0.1724
  136DMF     C2 2112   1.367   3.639   1.020 -0.6772  0.0601 -0.3769
  136DMF     C3 2113   1.505   3.496   0.874 -0.1523  0.2815  0.0171
  136DMF     O1 2114   1.550   3.390   0.829 -0.2884  0.0557  0.4878
  136DMF     H1 2115   1.334   3.322   1.051 -1.3640 -0.0905  0.5544
  136DMF     H2 2116   1.317   3.445   1.168  1.7216 -1.1062  2.3966
  136DMF     H3 2117   1.482   3.367   1.132  0.7340  0.0357 -2.3149
  136DMF     H4 2118   1.397   3.658   1.124  1.1396  0.6915 -0.9896
  136DMF     H5 2119   1.257   3.642   1.017 -0.7450 -0.4249  1.3115
  136DMF     H6 2120   1.412   3.716   0.956  1.6911 -0.2967  0.8104
  136DMF     H7 2121   1.511   3.589   0.815  2.6932 -2.1040 -3.7296
  137DMF     C1 2122   2.987   2.608   2.334  0.1486 -0.5968  0.0202
  137DMF     N1 2123   3.091   2.689   2.268  0.0348 -0.4966  0.1733
  137DMF     C2 2124   3.224   2.637   2.255 -0.1520  0.0236  0.4325
  137DMF     C3 2125   3.064   2.821   2.210 -0.1009  0.6521  0.2107
  137DMF     O1 2126   2.953   2.869   2.207 -0.0144 -0.2479 -0.1318
  137DMF     H1 2127   2.923   2.670   2.399  1.3279  0.3861  0.2717
  137DMF     H2 2128   3.018   2.523   2.396 -1.8654 -0.8113  0.7510
  137DMF     H3 2129   2.907   2.585   2.263 -0.9358 -0.5911  1.2142
  137DMF     H4 2130   3.239   2.541   2.306  0.8896  0.2044  0.4730
  137DMF     H5 2131   3.296   2.703   2.304  0.1939  0.8643 -1.1464
  137DMF     H6 2132   3.247   2.635   2.147 -1.0049 -2.0630  0.2560
  137DMF     H7 2133   3.149   2.865   2.155 -0.0819 -0.5318 -0.7156
  138DMF     C1 2134   2.154   3.102   1.070  0.6022  1.0266 -0.0511
  138DMF     N1 2135   2.086   3.194   1.167 -0.0690  0.3625  0.2564
  138DMF     C2 2136   2.156   3.298   1.236 -0.1762 -0.4775  0.3455
  138DMF     C3 2137   1.965   3.163   1.217 -0.1636  0.8804 -1.0409
  138DMF     O1 2138   1.894   3.081   1.169  0.4689  0.4658  0.3435
  138DMF     H1 2139   2.227   3.144   1.000 -0.8530  1.5231 -1.3244
  138DMF     H2 2140   2.070   3.060   1.012  0.8501  0.5277 -0.0442
  138DMF     H3 2141   2.197   3.017   1.124  1.1002  0.8527 -0.7142
  138DMF     H4 2142   2.230   3.262   1.309  1.2320  0.2816 -0.6804
  138DMF     H5 2143   2.089   3.358   1.299 -0.4937 -1.8765  1.3606
  138DMF     H6 2144   2.201   3.351   1.151  0.8462 -1.9818 -0.0747
  138DMF     H7 2145   1.927   3.224   1.301  0.5672 -0.1485  0.0638
  139DMF     C1 2146   1.534   1.859   0.580 -0.1452 -0.3544  0.5620
  139DMF     N1 2147   1.661   1.910   0.649 -0.4992 -0.4416 -0.1142
  139DMF     C2 2148   1.658   1.924   0.796 -0.1361 -0.0731 -0.4553
  139DMF     C3 2149   1.770   1.954   0.574 -0.0746  0.3103 -0.0018
  139DMF     O1 2150   1.777   1.930   0.455  0.4476 -0.1266 -0.2821
  139DMF     H1 2151   1.554   1.830   0.476 -2.7138 -0.2693 -0.0082
  139DMF     H2 2152   1.452   1.931   0.588 -0.0224 -0.1502 -0.0434
  139DMF     H3 2153   1.495   1.776   0.640 -0.9067  1.1114  2.1286
  139DMF     H4 2154   1.577   1.988   0.832 -0.3273 -0.7244  0.2839
  139DMF     H5 2155   1.751   1.972   0.827  1.1047 -2.1905 -0.7699
  139DMF     H6 2156   1.643   1.826   0.844  0.5188  0.6849  1.3179
  139DMF     H7 2157   1.847   2.004   0.634 -0.2504  0.2886  0.2460
  140DMF     C1 2158   0.303   1.752   0.129  0.3973  0.6455 -0.8609
  140DMF     N1 2159   0.189   1.656   0.167  0.1356 -0.1093 -0.0503
  140DMF     C2 2160   0.046   1.693   0.154  0.4393  0.0940 -0.0694
  140DMF     C3 2161   0.222   1.525   0.182 -0.0223  0.2926 -0.9984
  140DMF     O1 2162   0.335   1.491   0.192  0.0635 -0.1532  0.0142
  140DMF     H1 2163   0.274   1.853   0.098  3.4906  1.8789  0.0742
  140DMF     H2 2164   0.368   1.699   0.058 -1.2111 -2.3422 -0.1776
  140DMF     H3 2165   0.363   1.759   0.220 -0.4401 -1.4966 -0.1078
  140DMF     H4 2166  -0.015   1.628   0.219  0.4797  0.6313  0.5147
  140DMF     H5 2167   0.019   1.677   0.049  1.1883 -2.3354  0.0616
  140DMF     H6 2168   0.040   1.801   0.171  0.6568 -0.0566  1.0161
  140DMF     H7 2169   0.137   1.455   0.191  1.2495 -1.1654 -0.2964
  141DMF     C1 2170   2.014   2.220   3.368 -0.1591 -0.4813 -0.3884
  141DMF     N1 2171   2.074   2.323   3.279 -0.1400 -0.2418  0.2464
  141DMF     C2 2172   2.214   2.326   3.260  0.4712 -0.6446  0.1821
  141DMF     C3 2173   2.001   2.438   3.258  0.1859 -0.3526 -0.4926
  141DMF     O1 2174   1.878   2.433   3.278 -0.2254 -0.0527  0.1193
  141DMF     H1 2175   2.062   2.217   3.467  1.0966 -1.8675 -1.0193
  141DMF     H2 2176   2.043   2.131   3.311 -1.4289 -0.7166 -0.6775
  141DMF     H3 2177   1.906   2.228   3.382  0.1035  1.3784  0.7665
  141DMF     H4 2178   2.255   2.422   3.292  1.2882 -0.6654 -0.7966
  141DMF     H5 2179   2.243   2.293   3.160  0.0298  1.0753 -0.5226
  141DMF     H6 2180   2.256   2.261   3.339  0.1309 -1.7900 -0.5733
  141DMF     H7 2181   2.055   2.523   3.212 -2.7201  0.4761 -2.5395
  142DMF     C1 2182   3.120   2.691   1.537  0.0004  0.3104 -0.5994
  142DMF     N1 2183   3.017   2.768   1.459 -0.1315 -0.3932  0.1083
  142DMF     C2 2184   2.955   2.892   1.520  0.0653 -0.5362  0.3405
  142DMF     C3 2185   2.967   2.704   1.349  0.0806  0.4683 -0.1085
  142DMF     O1 2186   3.033   2.608   1.301  0.0531  0.2366  0.3698
  142DMF     H1 2187   3.179   2.627   1.471  1.3301  2.4780 -1.5748
  142DMF     H2 2188   3.061   2.619   1.596  0.3477 -1.1473 -2.0104
  142DMF     H3 2189   3.174   2.755   1.607  0.2230 -2.1117  1.5209
  142DMF     H4 2190   3.032   2.941   1.581  1.1601 -1.1451 -0.5307
  142DMF     H5 2191   2.875   2.865   1.590  0.6477 -0.1047  1.1774
  142DMF     H6 2192   2.917   2.962   1.444  1.5307  1.4278  1.3635
  142DMF     H7 2193   2.872   2.744   1.310  0.3921  0.2770 -1.0802
  143DMF     C1 2194   0.928   3.124   3.520  0.1037 -0.2788  0.6476
  143DMF     N1 2195   0.967   3.226   3.419 -0.5132 -0.0998  0.4933
  143DMF     C2 2196   1.060   3.184   3.312 -0.7438 -0.5346  0.2711
  143DMF     C3 2197   0.915   3.355   3.421  0.2353  0.3971  0.8150
  143DMF     O1 2198   0.828   3.397   3.495 -0.1937 -0.9115 -0.5669
  143DMF     H1 2199   0.887   3.170   3.611 -1.2589 -0.4126  0.1191
  143DMF     H2 2200   1.017   3.066   3.546  0.3037  0.0381  0.6867
  143DMF     H3 2201   0.863   3.044   3.485  0.5093  0.4478 -1.8777
  143DMF     H4 2202   1.067   3.075   3.298  1.7021 -0.6680  2.1821
  143DMF     H5 2203   1.162   3.213   3.342 -0.8608 -0.4040  0.5467
  143DMF     H6 2204   1.024   3.218   3.214 -0.1937 -2.3052 -0.5610
  143DMF     H7 2205   0.968   3.423   3.353  0.9699 -1.3537 -0.3846
  144DMF     C1 2206   3.237   0.778   1.049  0.3547  0.7772  0.7675
  144DMF     N1 2207   3.189   0.656   1.128 -0.6572  0.2906 -0.2776
  144DMF     C2 2208   3.233   0.523   1.080 -0.4250 -0.0832 -0.0099
  144DMF     C3 2209   3.100   0.679   1.230  0.8378 -0.2387  0.4792
  144DMF     O1 2210   3.077   0.791   1.268 -0.0600 -0.3238  0.0179
  144DMF     H1 2211   3.312   0.835   1.106  2.8097 -1.8423  0.3020
  144DMF     H2 2212   3.160   0.849   1.015 -0.6955 -0.0852  1.3279
  144DMF     H3 2213   3.285   0.749   0.954 -0.1618 -2.4601  1.4563
  144DMF     H4 2214   3.167   0.472   1.010  0.8300 -0.6368 -0.8157
  144DMF     H5 2215   3.253   0.467   1.173 -1.0848 -0.2378  0.0405
  144DMF     H6 2216   3.330   0.544   1.033 -0.4593 -0.7370 -0.3727
  144DMF     H7 2217   3.076   0.586   1.285  1.3671 -0.6143  0.0846
  145DMF     C1 2218   0.898   0.136   2.717 -0.6754 -0.2053  0.3328
  145DMF     N1 2219   0.891   0.281   2.726  0.5038  0.4564  0.0299
  145DMF     C2 2220   0.774   0.342   2.667  0.0374 -0.2505  0.2161
  145DMF     C3 2221   0.986   0.360   2.795 -0.0079  0.6528 -0.1702
  145DMF     O1 2222   1.077   0.310   2.855  0.1221  0.3004  0.0441
  145DMF     H1 2223   0.961   0.105   2.634 -0.0065 -0.4363  0.9214
  145DMF     H2 2224   0.796   0.096   2.714 -0.5953 -0.3580 -0.4060
  145DMF     H3 2225   0.932   0.107   2.817  0.4909  0.0455  0.0194
  145DMF     H4 2226   0.716   0.394   2.745 -0.2087  1.2643 -0.9594
  145DMF     H5 2227   0.708   0.277   2.608  3.1991 -2.1139 -1.3627
  145DMF     H6 2228   0.805   0.417   2.593 -0.9004 -1.1483 -1.1046
  145DMF     H7 2229   0.963   0.467   2.785  2.8677  1.1434 -1.8238
  146DMF     C1 2230   0.758   0.337   3.035 -0.8285  0.6554 -0.6585
  146DMF     N1 2231   0.676   0.223   2.997 -0.2554 -0.4692 -0.0916
  146DMF     C2 2232   0.538   0.248   2.952  0.5418  0.0262  0.1633
  146DMF     C3 2233   0.712   0.086   3.024 -0.2380 -0.2366  0.3785
  146DMF     O1 2234   0.822   0.053   3.066  0.2304 -0.7331  0.5409
  146DMF     H1 2235   0.712   0.401   3.112  0.7766 -1.0229  1.7775
  146DMF     H2 2236   0.778   0.402   2.949  0.0521  0.4394 -0.6158
  146DMF     H3 2237   0.852   0.296   3.075 -0.4488  1.0126 -1.1853
  146DMF     H4 2238   0.533   0.300   2.856 -0.9772  0.2703  0.3569
  146DMF     H5 2239   0.487   0.309   3.028  0.0215  1.2401 -1.1346
  146DMF     H6 2240   0.482   0.155   2.936 -1.6619  1.6231 -1.6924
  146DMF     H7 2241   0.633   0.011   3.009  1.5958 -2.2454  0.5472
  147DMF     C1 2242   0.287   2.263   0.707 -0.1638 -0.1822  0.0981
  147DMF     N1 2243   0.424   2.310   0.724  0.9789  0.4521 -0.1533
  147DMF     C2 2244   0.445   2.448   0.777  0.0406 -0.4410 -0.1557
  147DMF     C3 2245   0.532   2.252   0.650  0.2029 -0.1737  0.8668
  147DMF     O1 2246   0.516   2.153   0.580  0.2911  0.1140 -0.3491
  147DMF     H1 2247   0.228   2.340   0.655  2.3921  0.7812 -1.4825
  147DMF     H2 2248   0.240   2.234   0.802  1.5321 -0.1385  0.9670
  147DMF     H3 2249   0.292   2.166   0.657 -0.6592 -1.0121  1.6235
  147DMF     H4 2250   0.406   2.464   0.878  0.3799  0.2723 -0.1298
  147DMF     H5 2251   0.379   2.512   0.717  1.2997  1.2264  0.1952
  147DMF     H6 2252   0.548   2.487   0.768 -0.2973  1.0159  1.9149
  147DMF     H7 2253   0.630   2.302   0.660  0.8088 -0.9138 -1.1110
  148DMF     C1 2254   3.297   2.864   3.153  0.3887  0.5204  0.3895
  148DMF     N1 2255   3.349   2.731   3.172  0.0781  0.5921 -1.1355
  148DMF     C2 2256   3.415   2.705   3.302 -0.5307 -0.1325  0.2041
  148DMF     C3 2257   3.313   2.628   3.088 -0.8056  0.2460 -0.3869
  148DMF     O1 2258   3.250   2.646   2.981  0.3809  0.0402  0.3272
  148DMF     H1 2259   3.188   2.861   3.161  0.2070  2.5880 -1.0171
  148DMF     H2 2260   3.326   2.900   3.053  2.4309 -1.6517  0.1508
  148DMF     H3 2261   3.349   2.924   3.229  0.0462  0.6884  0.4903
  148DMF     H4 2262   3.522   2.729   3.295 -0.3651 -1.1996 -1.2015
  148DMF     H5 2263   3.393   2.601   3.330  1.6350 -0.1206  2.0878
  148DMF     H6 2264   3.372   2.772   3.378  1.7779  0.0400  1.4036
  148DMF     H7 2265   3.348   2.529   3.123 -1.5706  0.2955  0.5668
  149DMF     C1 2266   1.273   1.213   0.048  0.5897 -0.1524  0.2326
  149DMF     N1 2267   1.386   1.231  -0.043  0.1201 -0.2626  0.3146
  149DMF     C2 2268   1.483   1.346  -0.026  0.6700 -0.0837 -0.0426
  149DMF     C3 2269   1.398   1.158  -0.165 -0.4695  0.1225  0.2257
  149DMF     O1 2270   1.317   1.070  -0.193 -0.3023 -0.0923  0.5733
  149DMF     H1 2271   1.248   1.298   0.113  0.0496  1.1321 -1.6133
  149DMF     H2 2272   1.301   1.140   0.124 -1.6223  1.9600  3.1929
  149DMF     H3 2273   1.184   1.186  -0.010 -1.3076 -1.1366  3.4706
  149DMF     H4 2274   1.476   1.420  -0.106 -3.1175 -0.3536 -0.0202
  149DMF     H5 2275   1.583   1.302  -0.012  0.9620  0.5187 -0.1904
  149DMF     H6 2276   1.463   1.407   0.064  2.1738  1.7206 -0.8956
  149DMF     H7 2277   1.475   1.198  -0.233 -0.8845  0.3716 -0.1012
  150DMF     C1 2278   0.260   2.626   1.319 -0.3612  0.2987  0.3019
  150DMF     N1 2279   0.340   2.708   1.410 -0.3314 -0.1280  0.2415
  150DMF     C2 2280   0.464   2.767   1.357  0.4553 -1.0618  0.0100
  150DMF     C3 2281   0.313   2.730   1.546 -0.0771  0.4735 -0.4958
  150DMF     O1 2282   0.215   2.679   1.595 -0.6878 -0.4615  0.3904
  150DMF     H1 2283   0.256   2.522   1.354  1.5270 -1.2358 -3.7005
  150DMF     H2 2284   0.306   2.623   1.220 -0.1386  1.0391  0.3805
  150DMF     H3 2285   0.161   2.674   1.315 -0.1595  0.7416  0.6600
  150DMF     H4 2286   0.501   2.713   1.269 -0.1298 -1.5973  0.0929
  150DMF     H5 2287   0.541   2.777   1.435  0.8244  0.9293 -0.5946
  150DMF     H6 2288   0.439   2.867   1.320 -0.6298 -1.2227  0.3026
  150DMF     H7 2289   0.383   2.793   1.604  1.1781 -0.9869 -0.3805
  151DMF     C1 2290   2.839   2.473   2.628  0.1094  0.1574  0.1604
  151DMF     N1 2291   2.718   2.513   2.554 -0.5528 -0.1337  0.1609
  151DMF     C2 2292   2.693   2.430   2.443  0.0685 -0.6514 -0.0698
  151DMF     C3 2293   2.622   2.600   2.600 -0.3236 -0.4009 -0.0530
  151DMF     O1 2294   2.616   2.652   2.711 -0.1632 -0.2315  0.2555
  151DMF     H1 2295   2.824   2.421   2.724  1.9185  1.9916  1.4867
  151DMF     H2 2296   2.894   2.563   2.658 -2.7441  2.7082 -1.9412
  151DMF     H3 2297   2.904   2.412   2.565 -0.1521  0.3009 -0.2519
  151DMF     H4 2298   2.696   2.326   2.480  3.1134 -0.9570 -1.0296
  151DMF     H5 2299   2.763   2.443   2.359  0.0081 -0.9412 -0.1673
  151DMF     H6 2300   2.598   2.460   2.396 -0.3128 -0.5435  0.7601
  151DMF     H7 2301   2.545   2.617   2.524 -0.0335  2.0237  0.1478
  152DMF     C1 2302   0.108   0.433   2.869 -0.4016  0.1024  0.3403
  152DMF     N1 2303   0.045   0.540   2.785 -0.0533 -0.1100  0.3291
  152DMF     C2 2304   0.083   0.553   2.646  0.3771 -0.0590  0.0138
  152DMF     C3 2305  -0.018   0.643   2.851 -0.2363 -0.6092  0.2419
  152DMF     O1 2306  -0.018   0.646   2.972 -0.3346 -0.2957  0.1070
  152DMF     H1 2307   0.110   0.443   2.979 -2.5469  3.3830  0.1142
  152DMF     H2 2308   0.209   0.405   2.835 -0.5050  0.9207 -0.6270
  152DMF     H3 2309   0.045   0.345   2.851 -2.0961  1.4809 -0.4886
  152DMF     H4 2310   0.098   0.658   2.620  2.6475 -0.4530 -0.3708
  152DMF     H5 2311   0.004   0.502   2.589 -0.9292 -0.8078  2.3758
  152DMF     H6 2312   0.174   0.498   2.620 -0.3673 -1.2288 -0.1585
  152DMF     H7 2313  -0.076   0.711   2.786  0.2888  0.2013  0.6138
  153DMF     C1 2314   1.804   2.852   3.472  0.2929  0.9112 -0.3981
  153DMF     N1 2315   1.710   2.789   3.565  0.2410 -0.6896  0.0629
  153DMF     C2 2316   1.575   2.737   3.515 -0.1895  0.0906  0.0418
  153DMF     C3 2317   1.746   2.758   3.697 -0.4378  0.6638 -0.2444
  153DMF     O1 2318   1.844   2.799   3.749 -0.2590 -0.4106 -0.1212
  153DMF     H1 2319   1.750   2.886   3.383 -0.0281 -3.6267 -2.0322
  153DMF     H2 2320   1.879   2.784   3.429 -0.1967  1.9321 -2.9626
  153DMF     H3 2321   1.853   2.941   3.514 -1.6672  2.5934 -1.5608
  153DMF     H4 2322   1.531   2.815   3.452  1.6241  0.4933 -0.7736
  153DMF     H5 2323   1.511   2.714   3.601  2.2501 -0.1006  1.8707
  153DMF     H6 2324   1.580   2.638   3.468 -1.4112  0.3763 -0.7076
  153DMF     H7 2325   1.679   2.692   3.755  0.2287 -0.1283 -0.3780
  154DMF     C1 2326   1.337   0.847   0.082  0.2472 -0.3031 -0.2096
  154DMF     N1 2327   1.235   0.789   0.168 -0.4136  0.1941  0.0303
  154DMF     C2 2328   1.138   0.700   0.103 -0.2835  0.1151  0.0639
  154DMF     C3 2329   1.220   0.812   0.310 -0.6486  0.4783  1.0056
  154DMF     O1 2330   1.293   0.890   0.367  0.0827  0.3052  0.5425
  154DMF     H1 2331   1.419   0.885   0.145  0.7097 -3.5883  1.2830
  154DMF     H2 2332   1.290   0.928   0.027 -0.9753 -0.0857  1.1216
  154DMF     H3 2333   1.368   0.774   0.006 -1.8113 -2.1434  0.6614
  154DMF     H4 2334   1.117   0.745   0.005 -1.7616  0.3709  0.4917
  154DMF     H5 2335   1.044   0.683   0.157 -0.5485  0.3767 -0.3150
  154DMF     H6 2336   1.197   0.610   0.080  0.0635  0.0517  1.1940
  154DMF     H7 2337   1.137   0.751   0.351  0.3846 -1.8978 -0.3175
  155DMF     C1 2338   3.170   1.719   0.481 -0.6334 -0.0129  0.0062
  155DMF     N1 2339   3.057   1.725   0.405 -0.2299  0.4719  0.0712
  155DMF     C2 2340   3.055   1.668   0.280  0.5454  0.1991  0.0980
  155DMF     C3 2341   2.949   1.804   0.442 -0.0264  0.0287 -0.5010
  155DMF     O1 2342   2.947   1.867   0.546  0.2952 -0.4659  0.0475
  155DMF     H1 2343   3.144   1.692   0.584  1.2678  1.0358  0.7970
  155DMF     H2 2344   3.220   1.816   0.468  0.5784 -0.4753  1.0330
  155DMF     H3 2345   3.246   1.649   0.445  2.4606  2.3830  1.5643
  155DMF     H4 2346   3.042   1.559   0.278 -0.9751  0.3519  0.6099
  155DMF     H5 2347   3.141   1.701   0.221 -0.9052  1.7521 -1.2137
  155DMF     H6 2348   2.961   1.702   0.232  0.9071  0.2502 -0.5868
  155DMF     H7 2349   2.864   1.801   0.373  0.0750 -0.6612 -0.5988
  156DMF     C1 2350   0.996   2.774   0.750  0.4609  0.2740  0.0220
  156DMF     N1 2351   1.130   2.722   0.803 -1.3172 -0.3542 -0.0593
  156DMF     C2 2352   1.161   2.584   0.785  0.9191  0.5057 -1.2304
  156DMF     C3 2353   1.229   2.812   0.859 -0.1923 -0.2387 -0.4876
  156DMF     O1 2354   1.212   2.931   0.871 -0.1517  0.1716 -0.4579
  156DMF     H1 2355   0.950   2.695   0.688 -1.3292  1.4785 -0.2299
  156DMF     H2 2356   0.999   2.866   0.691 -5.3263  0.1664 -0.7251
  156DMF     H3 2357   0.931   2.799   0.835  0.3543 -2.4667  0.8186
  156DMF     H4 2358   1.143   2.522   0.874  1.2701  1.1204 -0.7250
  156DMF     H5 2359   1.263   2.569   0.749  1.2281  1.8629 -0.9619
  156DMF     H6 2360   1.115   2.555   0.690  0.3541  0.0316 -0.8126
  156DMF     H7 2361   1.321   2.760   0.889 -0.4380  0.1259  0.9401
  157DMF     C1 2362   2.569   0.900   3.726 -1.1384 -0.0676  0.2114
  157DMF     N1 2363   2.708   0.936   3.751 -0.1898 -0.2173 -0.2494
  157DMF     C2 2364   2.795   0.857   3.839 -0.1207 -0.1458 -0.1908
  157DMF     C3 2365   2.760   1.048   3.677 -0.3519 -0.4745 -0.2851
  157DMF     O1 2366   2.700   1.100   3.579  0.1716 -0.2401 -0.1295
  157DMF     H1 2367   2.536   0.839   3.810 -1.4809 -1.0369 -0.6173
  157DMF     H2 2368   2.549   0.830   3.643 -1.1369  2.6274 -2.1663
  157DMF     H3 2369   2.515   0.994   3.709  0.3707  0.7179 -0.3429
  157DMF     H4 2370   2.760   0.877   3.941 -2.3463  2.0641 -1.3364
  157DMF     H5 2371   2.900   0.887   3.824 -0.3805 -0.0360 -1.8480
  157DMF     H6 2372   2.782   0.749   3.827  1.5075 -0.3258 -0.4890
  157DMF     H7 2373   2.860   1.080   3.714  0.2251 -0.0725 -2.1542
  158DMF     C1 2374   0.412   1.892   1.211 -0.0396 -0.8090  0.4267
  158DMF     N1 2375   0.263   1.919   1.210  0.4654  0.5153 -0.6352
  158DMF     C2 2376   0.221   2.054   1.163  0.1593  0.5114 -0.0286
  158DMF     C3 2377   0.164   1.817   1.237  0.0001  0.3498  0.4880
  158DMF     O1 2378   0.201   1.702   1.261  0.5760  0.2065 -0.3494
  158DMF     H1 2379   0.429   1.806   1.277 -1.0064 -1.6270 -0.3564
  158DMF     H2 2380   0.469   1.980   1.243  0.2501 -0.9643  0.3285
  158DMF     H3 2381   0.424   1.852   1.110  0.1795 -0.5121  0.3371
  158DMF     H4 2382   0.151   2.042   1.079 -0.1219 -0.3800  0.3229
  158DMF     H5 2383   0.306   2.117   1.136  0.5008  0.1396  0.1826
  158DMF     H6 2384   0.155   2.107   1.234  1.1489  2.7737 -0.7435
  158DMF     H7 2385   0.060   1.850   1.252  0.2947  1.0379  1.0076
  159DMF     C1 2386   3.342   2.379   0.382 -1.1410  0.3446  0.0827
  159DMF     N1 2387   3.244   2.469   0.313  0.0200  0.5924 -0.0279
  159DMF     C2 2388   3.184   2.567   0.398 -0.0841  0.8705  0.6806
  159DMF     C3 2389   3.211   2.452   0.179 -0.0522  0.1272 -0.2613
  159DMF     O1 2390   3.253   2.358   0.113  0.3185  0.2184  0.2590
  159DMF     H1 2391   3.317   2.282   0.337  0.5499 -1.0435  2.0723
  159DMF     H2 2392   3.323   2.369   0.489 -0.1358 -0.0740  0.2266
  159DMF     H3 2393   3.447   2.398   0.356 -0.7410 -1.4954  0.3041
  159DMF     H4 2394   3.258   2.605   0.470 -1.0785  0.8773  1.7172
  159DMF     H5 2395   3.113   2.515   0.464 -0.4912 -0.9955 -1.1777
  159DMF     H6 2396   3.126   2.647   0.350  0.7406  0.6868 -0.6295
  159DMF     H7 2397   3.153   2.534   0.131 -2.6691 -1.4503  0.1381
  160DMF     C1 2398   0.697   2.542   0.480 -0.5579 -0.3138  0.1872
  160DMF     N1 2399   0.613   2.667   0.493 -0.6739 -0.2143  0.5779
  160DMF     C2 2400   0.656   2.778   0.578  0.1734 -0.1720  1.2976
  160DMF     C3 2401   0.489   2.663   0.421 -0.3315 -0.8054 -0.3938
  160DMF     O1 2402   0.454   2.567   0.356 -0.0637 -0.1230 -0.0819
  160DMF     H1 2403   0.752   2.559   0.386 -0.9622 -1.8024 -0.3292
  160DMF     H2 2404   0.636   2.452   0.474 -0.0635 -0.6442  0.1454
  160DMF     H3 2405   0.765   2.537   0.566 -1.1858  1.3840  0.8162
  160DMF     H4 2406   0.627   2.872   0.529 -1.2411  0.1098  2.6475
  160DMF     H5 2407   0.765   2.785   0.585  0.2495  2.3592 -1.4215
  160DMF     H6 2408   0.599   2.784   0.672 -0.5589 -0.7783  0.8978
  160DMF     H7 2409   0.417   2.746   0.433  1.5189  0.9747 -1.3235
  161DMF     C1 2410   1.464   2.346   0.685  0.6170  0.4291 -0.0133
  161DMF     N1 2411   1.520   2.371   0.547  0.0305  0.2056 -0.3175
  161DMF     C2 2412   1.567   2.251   0.476 -1.0794  0.0170  0.3080
  161DMF     C3 2413   1.509   2.496   0.481 -0.9529  0.7752  0.5579
  161DMF     O1 2414   1.457   2.592   0.536 -0.4346 -0.0443 -0.1029
  161DMF     H1 2415   1.378   2.412   0.703  1.1700  1.8974 -2.4539
  161DMF     H2 2416   1.549   2.354   0.754  0.1916 -3.2630  1.0332
  161DMF     H3 2417   1.425   2.244   0.693 -0.6963  0.8041 -1.4775
  161DMF     H4 2418   1.508   2.222   0.389  2.2708 -3.7536 -0.8811
  161DMF     H5 2419   1.571   2.164   0.544  2.9481  0.9459  1.4375
  161DMF     H6 2420   1.669   2.268   0.439 -1.5841 -0.0328 -1.1318
  161DMF     H7 2421   1.548   2.490   0.378 -0.4976 -0.1705  0.7729
  162DMF     C1 2422   2.827   2.290   0.783 -0.5594  0.1220  0.0464
  162DMF     N1 2423   2.831   2.138   0.796 -0.1716 -0.1087 -0.0553
  162DMF     C2 2424   2.935   2.078   0.877 -0.7457  0.3639 -0.5419
  162DMF     C3 2425   2.747   2.063   0.705  0.6793 -0.1884  1.6228
  162DMF     O1 2426   2.670   2.114   0.626  0.1162 -0.0387 -0.1388
  162DMF     H1 2427   2.749   2.323   0.714 -0.1684 -0.1811 -0.5472
  162DMF     H2 2428   2.925   2.331   0.756  0.5396 -2.3446  0.1376
  162DMF     H3 2429   2.807   2.330   0.883  0.1698  1.8211 -0.4651
  162DMF     H4 2430   2.990   2.164   0.918  0.8934 -1.7800  1.9396
  162DMF     H5 2431   2.997   2.021   0.808 -0.7153 -1.3968  0.9085
  162DMF     H6 2432   2.890   2.024   0.962 -2.3671  1.1755 -0.8675
  162DMF     H7 2433   2.755   1.954   0.719 -1.6761 -0.5161  0.6630
  163DMF     C1 2434   2.359   0.854   1.138  0.2725 -0.0584 -0.0117
  163DMF     N1 2435   2.329   0.984   1.196 -0.0818  0.0475  0.4179
  163DMF     C2 2436   2.192   1.025   1.221  0.8419  0.5611 -0.7298
  163DMF     C3 2437   2.437   1.074   1.221 -0.3821  0.4212 -0.1417
  163DMF     O1 2438   2.546   1.046   1.187 -0.3926 -0.4418  0.1768
  163DMF     H1 2439   2.268   0.794   1.129  0.5936 -0.1165 -3.8581
  163DMF     H2 2440   2.434   0.801   1.198  0.2354  0.0732  0.1523
  163DMF     H3 2441   2.403   0.876   1.039  2.8057  0.4437  1.1783
  163DMF     H4 2442   2.192   1.118   1.279  0.2070  0.2995 -0.2941
  163DMF     H5 2443   2.153   0.945   1.285 -1.2165  0.8040 -1.6383
  163DMF     H6 2444   2.138   1.032   1.126  1.5154  1.7121 -1.0356
  163DMF     H7 2445   2.415   1.176   1.259  0.5058  0.9594 -1.0715
  164DMF     C1 2446   3.037   1.169   2.296  0.0464 -0.5321 -0.5620
  164DMF     N1 2447   3.003   1.189   2.439  0.1277 -0.0546  0.1293
  164DMF     C2 2448   3.003   1.074   2.524  0.0951 -0.5234  0.1821
  164DMF     C3 2449   2.949   1.310   2.487  0.5732 -0.0755 -0.3881
  164DMF     O1 2450   2.935   1.402   2.410 -0.0178 -0.4121  0.1416
  164DMF     H1 2451   2.945   1.159   2.238  1.2156 -0.1844 -2.5547
  164DMF     H2 2452   3.086   1.071   2.296 -3.0242 -2.0984  0.2984
  164DMF     H3 2453   3.104   1.251   2.265 -0.4424  0.9037  2.0409
  164DMF     H4 2454   3.094   1.071   2.584  1.6081 -0.6755 -2.0368
  164DMF     H5 2455   2.992   0.979   2.471 -3.0635 -1.2505  1.9807
  164DMF     H6 2456   2.910   1.072   2.582 -0.9612  0.6939 -1.3850
  164DMF     H7 2457   2.926   1.309   2.595  0.2292 -0.6789 -0.4625
  165DMF     C1 2458   1.288   0.264   3.575 -0.6931  0.1819 -0.4224
  165DMF     N1 2459   1.223   0.321   3.693  0.8492 -0.5664  0.5424
  165DMF     C2 2460   1.291   0.296   3.823  1.1987  0.7461  0.2924
  165DMF     C3 2461   1.101   0.388   3.681  0.8547 -0.0889 -0.2612
  165DMF     O1 2462   1.057   0.430   3.575 -0.9278 -0.4449 -0.5236
  165DMF     H1 2463   1.393   0.298   3.570 -0.6496 -0.0760 -1.3951
  165DMF     H2 2464   1.230   0.295   3.487 -1.7460  0.1417  0.2516
  165DMF     H3 2465   1.289   0.155   3.584  1.4356  0.1916 -0.3193
  165DMF     H4 2466   1.361   0.212   3.819  0.0054 -0.2318 -0.5030
  165DMF     H5 2467   1.224   0.266   3.905 -0.4777  1.1264 -0.9184
  165DMF     H6 2468   1.356   0.375   3.862  0.6800  1.0718  0.5033
  165DMF     H7 2469   1.046   0.399   3.777 -0.6067 -0.8649 -0.9997
  166DMF     C1 2470   2.249   0.164   3.456  0.7944 -0.7578 -0.0095
  166DMF     N1 2471   2.313   0.281   3.390 -0.2273  0.2782 -0.0761
  166DMF     C2 2472   2.267   0.416   3.425 -0.6038 -0.2627  0.4638
  166DMF     C3 2473   2.421   0.268   3.303  0.7736  0.4410 -0.0072
  166DMF     O1 2474   2.468   0.161   3.265 -0.3840  0.1836 -0.1417
  166DMF     H1 2475   2.283   0.147   3.559  1.0157 -1.7722 -0.2461
  166DMF     H2 2476   2.284   0.071   3.409  0.6214 -0.5006 -0.6484
  166DMF     H3 2477   2.139   0.162   3.446  0.9106  0.7746 -1.5985
  166DMF     H4 2478   2.204   0.450   3.343 -0.5153 -1.2609 -0.0281
  166DMF     H5 2479   2.350   0.487   3.432 -0.2709 -0.8071  2.5073
  166DMF     H6 2480   2.216   0.400   3.522  1.3300 -1.0403  1.3846
  166DMF     H7 2481   2.468   0.366   3.279  0.4149  0.8748  1.0654
  167DMF     C1 2482   2.133   0.683   0.372  0.3698 -0.7630  0.6132
  167DMF     N1 2483   2.243   0.641   0.463  0.2393 -0.2455 -0.1821
  167DMF     C2 2484   2.214   0.626   0.606 -0.1128 -0.1584  0.0892
  167DMF     C3 2485   2.377   0.625   0.415 -0.0318  0.0612  0.1714
  167DMF     O1 2486   2.415   0.614   0.301  0.3269  0.1278 -0.1992
  167DMF     H1 2487   2.110   0.787   0.399 -0.1591 -1.0615  1.3270
  167DMF     H2 2488   2.045   0.619   0.388 -1.0683  0.5213 -1.7872
  167DMF     H3 2489   2.169   0.677   0.269 -0.5553 -2.2467  0.3592
  167DMF     H4 2490   2.197   0.523   0.641 -2.1340  0.1577  0.1049
  167DMF     H5 2491   2.137   0.697   0.639  0.2684  0.1169  0.3811
  167DMF     H6 2492   2.311   0.653   0.650 -0.8177  2.7793 -0.0813
  167DMF     H7 2493   2.439   0.610   0.506  0.6771  0.8323 -0.1753
  168DMF     C1 2494   0.394   0.043   0.040 -0.0706  0.2477 -1.0378
  168DMF     N1 2495   0.432   0.000  -0.095 -0.1539 -0.1930 -0.2659
  168DMF     C2 2496   0.575   0.003  -0.140  0.3705 -0.2813 -0.4839
  168DMF     C3 2497   0.346  -0.077  -0.169 -0.6204 -0.2568  0.1223
  168DMF     O1 2498   0.230  -0.097  -0.144  0.2145  0.0818 -0.2336
  168DMF     H1 2499   0.300  -0.007   0.068 -1.3002  2.6112 -0.7727
  168DMF     H2 2500   0.362   0.148   0.040 -0.0691  0.2760  1.3634
  168DMF     H3 2501   0.467   0.039   0.122 -0.9489 -2.0214 -0.3314
  168DMF     H4 2502   0.635   0.035  -0.053 -0.0214 -0.1962 -0.2436
  168DMF     H5 2503   0.602   0.075  -0.218 -1.8495 -0.7537 -1.7311
  168DMF     H6 2504   0.601  -0.099  -0.170  1.7470  0.0863 -0.5683
  168DMF     H7 2505   0.394  -0.137  -0.250 -1.3073 -1.6564  0.7289
  169DMF     C1 2506   3.205   1.587   2.253  0.1982  0.5621  0.3173
  169DMF     N1 2507   3.269   1.579   2.384  0.1642  0.4106 -0.1602
  169DMF     C2 2508   3.363   1.475   2.405  0.2285  0.0316 -0.4641
  169DMF     C3 2509   3.233   1.664   2.483  0.9708 -0.6988 -0.7442
  169DMF     O1 2510   3.149   1.751   2.476 -0.0881 -0.6001 -0.2335
  169DMF     H1 2511   3.179   1.691   2.228 -0.7992  0.1976 -0.1644
  169DMF     H2 2512   3.112   1.530   2.254  0.1363  0.6478  2.0909
  169DMF     H3 2513   3.270   1.552   2.172 -2.0096  0.2802 -1.3877
  169DMF     H4 2514   3.332   1.416   2.492 -0.5183  0.8206 -0.1813
  169DMF     H5 2515   3.462   1.520   2.419  0.0707  0.6905 -1.3782
  169DMF     H6 2516   3.364   1.415   2.314  0.1541  0.8600 -1.0145
  169DMF     H7 2517   3.294   1.650   2.574  1.4989 -2.7596 -1.3858
  170DMF     C1 2518   1.673   1.975   1.514 -0.0644 -0.1592  0.1224
  170DMF     N1 2519   1.657   1.826   1.533  0.1337  0.0903 -0.2087
  170DMF     C2 2520   1.764   1.736   1.493  0.3897 -0.6164  0.3130
  170DMF     C3 2521   1.535   1.762   1.562  0.5561 -0.0379  0.1445
  170DMF     O1 2522   1.432   1.822   1.580  0.0137  0.2854  0.2973
  170DMF     H1 2523   1.614   2.004   1.426  2.2932 -0.0796 -1.4789
  170DMF     H2 2524   1.774   2.010   1.488  0.2017  0.4817  1.9344
  170DMF     H3 2525   1.633   2.014   1.609 -0.8150 -0.4002 -0.0907
  170DMF     H4 2526   1.816   1.728   1.589  0.7171 -3.1575 -0.0199
  170DMF     H5 2527   1.837   1.785   1.426  0.9082 -0.1636  1.2035
  170DMF     H6 2528   1.740   1.641   1.443  0.6190  1.5013 -4.1531
  170DMF     H7 2529   1.536   1.653   1.575  0.8445 -0.2067 -1.2417
  171DMF     C1 2530   2.263   1.819   1.063 -0.4777 -0.2749 -0.1767
  171DMF     N1 2531   2.123   1.775   1.055 -0.1373 -0.3478  0.0503
  171DMF     C2 2532   2.077   1.753   0.911  0.3543  0.2895  0.1217
  171DMF     C3 2533   2.052   1.732   1.171 -0.3241 -0.0940  0.4670
  171DMF     O1 2534   2.095   1.741   1.282 -0.4300 -0.4414 -0.3266
  171DMF     H1 2535   2.322   1.751   1.000  0.1415  0.3920 -0.3343
  171DMF     H2 2536   2.309   1.811   1.162  2.2965  0.7605 -1.3140
  171DMF     H3 2537   2.268   1.923   1.027 -0.4826  0.2263  1.2459
  171DMF     H4 2538   2.157   1.719   0.844  0.0780 -0.8684  0.3690
  171DMF     H5 2539   2.035   1.847   0.873  1.6831  0.3589 -1.2255
  171DMF     H6 2540   1.997   1.678   0.910  0.1370  0.5287 -1.8652
  171DMF     H7 2541   1.963   1.674   1.140 -0.0190 -0.5250  0.3924
  172DMF     C1 2542   1.723   3.241   2.750 -0.0399 -0.4067  0.2548
  172DMF     N1 2543   1.803   3.293   2.858 -0.0389  0.2403 -0.5113
  172DMF     C2 2544   1.935   3.336   2.815 -0.0739  0.5176  0.5452
  172DMF     C3 2545   1.744   3.351   2.971  0.1818 -0.5947 -0.3422
  172DMF     O1 2546   1.632   3.336   3.000 -0.1242 -0.2026 -0.1330
  172DMF     H1 2547   1.780   3.194   2.668 -0.7293  0.1864 -0.5718
  172DMF     H2 2548   1.667   3.320   2.699 -2.4904 -2.0392  0.3447
  172DMF     H3 2549   1.654   3.169   2.794  0.1983 -0.4156  0.6090
  172DMF     H4 2550   2.011   3.261   2.841 -1.3445 -2.1619 -3.0851
  172DMF     H5 2551   1.961   3.432   2.861 -1.1702  0.0127  2.2736
  172DMF     H6 2552   1.939   3.338   2.706  1.4161  0.5363  0.5867
  172DMF     H7 2553   1.811   3.421   3.025  0.5439 -1.1334 -0.0898
  173DMF     C1 2554   0.144   0.466   3.340 -0.3687  0.2663 -0.4957
  173DMF     N1 2555   0.144   0.318   3.333 -0.0682 -0.5769 -0.0121
  173DMF     C2 2556   0.135   0.248   3.201 -0.4386 -0.4976 -0.0896
  173DMF     C3 2557   0.154   0.244   3.450  0.1480  0.5610 -0.3147
  173DMF     O1 2558   0.151   0.293   3.558 -0.2320  0.5089 -0.0136
  173DMF     H1 2559   0.241   0.497   3.380 -1.2843 -0.2788  2.2343
  173DMF     H2 2560   0.073   0.507   3.413  1.4469 -0.2193  1.5842
  173DMF     H3 2561   0.110   0.514   3.247  0.8681 -0.4576 -1.3344
  173DMF     H4 2562   0.239   0.242   3.167 -0.8121  0.9660 -1.5501
  173DMF     H5 2563   0.071   0.297   3.127 -2.1428 -0.8797  1.1162
  173DMF     H6 2564   0.102   0.143   3.211  2.3560 -1.3038  1.2494
  173DMF     H7 2565   0.157   0.134   3.436 -0.6726  0.3030  1.4965
  174DMF     C1 2566   0.106   1.927   0.631 -0.5672  0.3232  0.3398
  174DMF     N1 2567   0.240   1.873   0.611  0.4446  0.5295 -0.2373
  174DMF     C2 2568   0.258   1.768   0.518  0.3978 -0.3673  0.9758
  174DMF     C3 2569   0.340   1.908   0.703 -0.6017 -0.5326 -0.3266
  174DMF     O1 2570   0.315   1.955   0.813  0.4486  0.6110 -0.0914
  174DMF     H1 2571   0.048   1.914   0.538  1.9006  0.5407 -1.2739
  174DMF     H2 2572   0.121   2.034   0.647 -0.7222  0.4889 -0.6003
  174DMF     H3 2573   0.050   1.879   0.712 -1.2680 -0.0737 -0.3739
  174DMF     H4 2574   0.267   1.666   0.557  1.4746 -0.5500  0.2806
  174DMF     H5 2575   0.350   1.795   0.464 -0.8247  2.3878  0.1836
  174DMF     H6 2576   0.171   1.762   0.451  1.2691  0.6703 -0.2799
  174DMF     H7 2577   0.440   1.890   0.658 -0.1780  0.9111 -0.0017
  175DMF     C1 2578   2.663   1.378   0.067 -0.2751  0.1321 -0.2297
  175DMF     N1 2579   2.667   1.525   0.058 -0.1413  0.5522 -0.1961
  175DMF     C2 2580   2.667   1.591  -0.073 -0.6356  0.6826  0.6098
  175DMF     C3 2581   2.696   1.601   0.175  0.4469  0.1729 -0.4693
  175DMF     O1 2582   2.702   1.542   0.286 -0.5322  0.2343 -0.0905
  175DMF     H1 2583   2.560   1.355   0.098  0.0910 -1.1357  0.0403
  175DMF     H2 2584   2.741   1.345   0.137  0.1806  1.6249 -0.0080
  175DMF     H3 2585   2.673   1.331  -0.031  0.8058  1.8535 -0.9838
  175DMF     H4 2586   2.719   1.530  -0.148 -2.0245  0.5450 -0.2466
  175DMF     H5 2587   2.726   1.682  -0.055  0.7103  0.0034 -0.2274
  175DMF     H6 2588   2.566   1.605  -0.112 -0.2592 -0.2699 -0.7472
  175DMF     H7 2589   2.725   1.705   0.150  0.2358  0.3649  0.0747
  176DMF     C1 2590   1.960   0.234   0.536 -0.5805 -0.7541  0.2795
  176DMF     N1 2591   1.888   0.105   0.562  0.4221  0.2140 -0.0281
  176DMF     C2 2592   1.966  -0.023   0.536 -0.2550 -0.3176 -0.2042
  176DMF     C3 2593   1.756   0.102   0.613 -0.5896 -0.1080 -0.9999
  176DMF     O1 2594   1.699   0.207   0.642  0.2011 -0.1501  1.3937
  176DMF     H1 2595   2.034   0.259   0.613 -0.5818  0.1647 -0.0186
  176DMF     H2 2596   1.891   0.319   0.544 -0.6230 -0.8837  1.3412
  176DMF     H3 2597   2.013   0.227   0.440 -1.1834  0.4220 -0.1405
  176DMF     H4 2598   1.943  -0.043   0.430 -1.8413  1.1329 -0.1747
  176DMF     H5 2599   1.933  -0.101   0.605  0.0113 -0.2368  0.0123
  176DMF     H6 2600   2.073  -0.006   0.548 -0.2933  0.0792 -0.4036
  176DMF     H7 2601   1.719  -0.002   0.622  2.3133 -1.1051 -0.3195
  177DMF     C1 2602   3.216   1.974   1.123 -0.5449 -0.1891  0.4389
  177DMF     N1 2603   3.247   1.879   1.025  0.2215 -0.2089  0.0425
  177DMF     C2 2604   3.250   1.737   1.061  0.2934  0.6344  0.2990
  177DMF     C3 2605   3.275   1.918   0.894  0.0527 -0.1976 -0.2425
  177DMF     O1 2606   3.286   2.030   0.858 -0.3545 -0.4210 -0.4410
  177DMF     H1 2607   3.222   2.074   1.078 -0.0611 -1.4558 -2.4283
  177DMF     H2 2608   3.277   1.963   1.213 -0.4933  1.2529  0.5871
  177DMF     H3 2609   3.109   1.968   1.146 -0.2520  2.0768  2.5530
  177DMF     H4 2610   3.307   1.722   1.153  1.0290 -0.1315 -0.2706
  177DMF     H5 2611   3.296   1.676   0.982 -0.4835  1.1838 -0.5859
  177DMF     H6 2612   3.147   1.702   1.079  0.2774  0.7149  0.3594
  177DMF     H7 2613   3.272   1.831   0.826  0.6627 -2.2793  2.2783
  178DMF     C1 2614   1.442   1.784   2.536 -0.0857  0.6782  0.2653
  178DMF     N1 2615   1.360   1.741   2.645 -0.2052  0.2841 -0.2331
  178DMF     C2 2616   1.249   1.652   2.613  0.6795  0.1316 -0.6861
  178DMF     C3 2617   1.374   1.791   2.776 -0.3230 -0.0413 -0.7396
  178DMF     O1 2618   1.455   1.879   2.794 -0.0195  0.7845 -0.2562
  178DMF     H1 2619   1.528   1.718   2.518 -0.0181  0.8891 -0.2165
  178DMF     H2 2620   1.495   1.877   2.560  1.2678  0.3626 -1.3787
  178DMF     H3 2621   1.384   1.806   2.445 -0.4188  0.5474  0.4464
  178DMF     H4 2622   1.172   1.716   2.569  0.1029  0.8346  1.2852
  178DMF     H5 2623   1.204   1.599   2.699  1.5090  0.3464 -0.1129
  178DMF     H6 2624   1.286   1.578   2.540  1.5808  2.4501 -2.6346
  178DMF     H7 2625   1.308   1.747   2.853  0.6635  1.5155  1.0453
  179DMF     C1 2626   1.334   1.098   2.635 -0.1429  0.2375  0.1980
  179DMF     N1 2627   1.407   1.201   2.718 -0.7755 -0.2414 -0.9961
  179DMF     C2 2628   1.486   1.300   2.643  0.2169 -0.4723  0.3255
  179DMF     C3 2629   1.392   1.203   2.861  0.3368  0.3550 -0.3138
  179DMF     O1 2630   1.316   1.123   2.929  0.2373  0.0226  0.1687
  179DMF     H1 2631   1.406   1.052   2.566  0.7515 -0.0191  1.2965
  179DMF     H2 2632   1.262   1.137   2.563  2.0229  2.4567 -0.8359
  179DMF     H3 2633   1.290   1.019   2.697 -0.1332 -0.4016 -0.5939
  179DMF     H4 2634   1.567   1.254   2.585  0.2005 -0.7208  0.4988
  179DMF     H5 2635   1.534   1.372   2.710 -1.7121  3.0558 -1.9059
  179DMF     H6 2636   1.430   1.362   2.572  1.4884 -1.3355 -1.4846
  179DMF     H7 2637   1.458   1.274   2.913  0.4087 -0.1255  0.2623
  180DMF     C1 2638   2.260   2.439   0.709  0.4441  0.2738 -0.2887
  180DMF     N1 2639   2.303   2.370   0.582 -0.0161  0.4507 -0.1670
  180DMF     C2 2640   2.217   2.258   0.535  0.0268  0.4496 -0.3252
  180DMF     C3 2641   2.426   2.394   0.524 -0.2476 -0.0290 -0.2565
  180DMF     O1 2642   2.509   2.471   0.571  0.5840 -0.0112  0.5565
  180DMF     H1 2643   2.350   2.451   0.770  0.1899 -1.5013  0.4669
  180DMF     H2 2644   2.173   2.383   0.744  1.1820 -1.5704 -1.3222
  180DMF     H3 2645   2.219   2.536   0.678  0.3804  0.9991  1.9792
  180DMF     H4 2646   2.109   2.272   0.544  0.0707 -1.4597  4.5878
  180DMF     H5 2647   2.223   2.169   0.598 -0.4437  0.6960  0.0677
  180DMF     H6 2648   2.240   2.223   0.433 -0.7657  0.0713 -0.3764
  180DMF     H7 2649   2.456   2.320   0.448 -2.4304 -0.6351 -0.5737
  181DMF     C1 2650   1.586   3.038   0.886 -0.2983  0.2448 -0.2271
  181DMF     N1 2651   1.633   2.975   0.763  0.1821 -0.2443 -0.0179
  181DMF     C2 2652   1.638   3.055   0.638  0.0158  0.5415  0.0669
  181DMF     C3 2653   1.633   2.835   0.748  0.0280 -0.0522 -0.4511
  181DMF     O1 2654   1.614   2.766   0.844  0.6189 -0.2757  0.5847
  181DMF     H1 2655   1.502   2.980   0.926  2.1086 -2.0215  1.7023
  181DMF     H2 2656   1.538   3.134   0.863 -1.7345 -0.6089 -0.8620
  181DMF     H3 2657   1.663   3.047   0.963 -0.5756 -0.8521  0.1856
  181DMF     H4 2658   1.740   3.036   0.602 -0.2674  0.6132 -0.8036
  181DMF     H5 2659   1.622   3.162   0.655 -1.5818  0.0076  2.0570
  181DMF     H6 2660   1.566   3.022   0.562 -1.6021  1.3154  1.2304
  181DMF     H7 2661   1.658   2.801   0.646 -0.7928  0.4196 -0.8167
  182DMF     C1 2662   0.933   1.843   1.147  0.0921 -0.4045 -0.0950
  182DMF     N1 2663   0.924   1.698   1.119  0.3938 -0.3467  0.1109
  182DMF     C2 2664   1.047   1.620   1.095  0.1489  0.1926 -0.2122
  182DMF     C3 2665   0.804   1.627   1.122  0.1646 -0.3086  0.1289
  182DMF     O1 2666   0.701   1.684   1.141 -0.0587  0.0817  0.4536
  182DMF     H1 2667   0.864   1.896   1.080 -1.6133 -2.6623 -0.1783
  182DMF     H2 2668   1.032   1.887   1.129  0.1378 -0.1493  0.7528
  182DMF     H3 2669   0.922   1.862   1.254 -1.1893 -1.5015 -0.0242
  182DMF     H4 2670   1.047   1.536   1.165  1.6665 -0.5858 -1.1269
  182DMF     H5 2671   1.136   1.685   1.101 -0.5310  1.1331 -0.3132
  182DMF     H6 2672   1.048   1.572   0.996  2.3088 -1.7249  0.6917
  182DMF     H7 2673   0.812   1.517   1.108  0.5604 -0.1944 -0.5748
  183DMF     C1 2674   0.519   2.881   0.953 -0.3084 -0.6446 -0.3067
  183DMF     N1 2675   0.423   2.970   1.024 -0.2782 -0.2186  0.1538
  183DMF     C2 2676   0.277   2.926   1.023 -0.0522 -0.1188  0.1067
  183DMF     C3 2677   0.464   3.082   1.107 -0.6957 -0.5288  0.5488
  183DMF     O1 2678   0.586   3.107   1.123 -0.2295  0.1421  0.1358
  183DMF     H1 2679   0.477   2.868   0.853 -1.7603  0.9696  0.0547
  183DMF     H2 2680   0.513   2.787   1.009 -2.4535 -0.9702 -1.0241
  183DMF     H3 2681   0.621   2.920   0.953 -1.0006  1.2125 -0.1181
  183DMF     H4 2682   0.272   2.828   1.072  0.1975  0.2659  0.9229
  183DMF     H5 2683   0.235   2.915   0.923 -0.7576  0.3783  0.3413
  183DMF     H6 2684   0.214   2.994   1.083 -0.5620 -0.8001  0.3534
  183DMF     H7 2685   0.387   3.151   1.147  1.2524  1.1771  1.4572
  184DMF     C1 2686   2.203   0.715   1.411 -0.5594 -0.0198  0.4925
  184DMF     N1 2687   2.224   0.571   1.426 -0.0768 -0.2209 -0.1011
  184DMF     C2 2688   2.236   0.505   1.555 -0.2814 -0.3998  0.4117
  184DMF     C3 2689   2.209   0.496   1.306  0.0750  0.6293 -0.2383
  184DMF     O1 2690   2.189   0.542   1.199 -0.3145 -0.3246  0.3111
  184DMF     H1 2691   2.299   0.757   1.381 -0.9047  2.1698  2.3120
  184DMF     H2 2692   2.182   0.769   1.504  0.7526  1.3253  0.0244
  184DMF     H3 2693   2.123   0.744   1.341 -1.9817 -1.5970  1.4219
  184DMF     H4 2694   2.246   0.397   1.547 -1.1229 -0.4990  0.6248
  184DMF     H5 2695   2.155   0.531   1.625  1.3801  1.6092  1.6575
  184DMF     H6 2696   2.325   0.546   1.604 -0.9729  0.4032  1.0271
  184DMF     H7 2697   2.210   0.387   1.321 -1.0260  0.8135  1.3380
  185DMF     C1 2698   0.660   2.723   2.254 -0.5868 -0.1150 -0.1946
  185DMF     N1 2699   0.707   2.752   2.391 -0.2322  0.6219 -0.4806
  185DMF     C2 2700   0.721   2.647   2.492  0.4465 -0.3608 -0.0499
  185DMF     C3 2701   0.712   2.882   2.437 -0.0442  0.1472  0.3813
  185DMF     O1 2702   0.680   2.986   2.376 -0.0652  0.2399  0.4436
  185DMF     H1 2703   0.551   2.735   2.255 -0.3628  2.3814 -1.1429
  185DMF     H2 2704   0.692   2.622   2.224 -1.3149 -0.3045 -0.3506
  185DMF     H3 2705   0.701   2.790   2.177  2.1865 -0.4953  0.8792
  185DMF     H4 2706   0.817   2.651   2.545  0.7174 -1.1809 -0.4804
  185DMF     H5 2707   0.714   2.546   2.449  3.5206 -0.3592 -0.6645
  185DMF     H6 2708   0.636   2.658   2.560  0.5910 -1.8041  0.3783
  185DMF     H7 2709   0.753   2.885   2.540 -0.9156  0.5108  0.7227
  186DMF     C1 2710   1.051   1.349   3.464  0.3187  0.0843 -0.1370
  186DMF     N1 2711   1.109   1.478   3.420  0.4467 -0.8138  0.7815
  186DMF     C2 2712   1.003   1.582   3.407  0.6039 -0.1773 -0.2503
  186DMF     C3 2713   1.246   1.507   3.402 -0.0453 -0.2386 -0.4528
  186DMF     O1 2714   1.332   1.429   3.430  0.2994  0.2134 -0.5555
  186DMF     H1 2715   0.978   1.365   3.545  0.8265 -0.0953  0.3546
  186DMF     H2 2716   1.123   1.279   3.508  2.2372  1.6486 -0.7240
  186DMF     H3 2717   0.998   1.297   3.383  2.4240 -0.8512 -0.9466
  186DMF     H4 2718   1.004   1.649   3.493  1.2269  1.0729 -1.2292
  186DMF     H5 2719   0.905   1.549   3.371  0.8008 -0.7906 -0.2350
  186DMF     H6 2720   1.021   1.658   3.331 -1.0927 -0.0712 -0.5718
  186DMF     H7 2721   1.267   1.610   3.367 -2.2733  1.5239  3.0896
  187DMF     C1 2722   1.498   3.050   2.234 -0.5167 -0.7279 -0.2921
  187DMF     N1 2723   1.621   3.067   2.313  0.0549 -0.0518 -0.5017
  187DMF     C2 2724   1.671   2.949   2.377  0.5945  0.3802 -0.0675
  187DMF     C3 2725   1.701   3.183   2.300 -0.1143 -0.3199  0.4040
  187DMF     O1 2726   1.674   3.273   2.219 -0.1631  0.0085  0.0702
  187DMF     H1 2727   1.413   3.050   2.305  1.0287  2.9782  1.7100
  187DMF     H2 2728   1.491   2.960   2.172  0.6005 -2.6668  2.3273
  187DMF     H3 2729   1.498   3.132   2.161  1.7598  0.2943  0.8020
  187DMF     H4 2730   1.621   2.943   2.475 -0.4799  0.2840 -0.6197
  187DMF     H5 2731   1.779   2.958   2.393  0.3893  2.8311  0.1651
  187DMF     H6 2732   1.646   2.867   2.310 -3.2237  0.0334  1.6184
  187DMF     H7 2733   1.781   3.187   2.376 -0.0646 -0.1796  0.3462
  188DMF     C1 2734   2.370   1.034   3.396  1.0882  0.8034 -0.2121
  188DMF     N1 2735   2.328   0.954   3.281  0.3043 -0.8034 -0.2190
  188DMF     C2 2736   2.306   1.025   3.149 -1.0210  0.4586 -0.0016
  188DMF     C3 2737   2.304   0.811   3.286  0.0481 -0.1330 -0.3487
  188DMF     O1 2738   2.317   0.736   3.379  0.7637  0.1940 -0.1463
  188DMF     H1 2739   2.278   1.087   3.420 -0.0672 -0.6421 -1.3183
  188DMF     H2 2740   2.450   1.101   3.361  1.9507  0.4308  1.0120
  188DMF     H3 2741   2.409   0.966   3.473  0.9083 -1.3006 -1.9255
  188DMF     H4 2742   2.370   1.113   3.135 -0.7623 -0.0053 -1.9046
  188DMF     H5 2743   2.203   1.057   3.131 -1.7777 -0.5683  2.3171
  188DMF     H6 2744   2.330   0.959   3.065  0.3573 -2.7852  2.8115
  188DMF     H7 2745   2.271   0.771   3.188 -0.4371  1.9111 -1.0571
  189DMF     C1 2746   3.153   3.253   3.240  0.1233 -0.4718  0.7489
  189DMF     N1 2747   3.130   3.275   3.099  0.1540  0.2966  0.4882
  189DMF     C2 2748   3.207   3.203   3.001  0.6006 -0.1445 -0.1919
  189DMF     C3 2749   3.035   3.360   3.046 -0.3101 -0.5103  0.0035
  189DMF     O1 2750   2.976   3.429   3.121  0.0003  0.2444  0.3670
  189DMF     H1 2751   3.096   3.329   3.295 -0.3690  0.3941 -0.9283
  189DMF     H2 2752   3.259   3.264   3.265  0.3637 -2.3136  0.6389
  189DMF     H3 2753   3.113   3.155   3.271 -0.2696  0.2590  2.6406
  189DMF     H4 2754   3.289   3.266   2.963  0.2760  0.9399  0.8565
  189DMF     H5 2755   3.141   3.171   2.920  0.4945 -2.9426  0.9524
  189DMF     H6 2756   3.226   3.103   3.044 -1.5770 -1.0626 -1.3017
  189DMF     H7 2757   3.030   3.354   2.936 -1.0086  0.7361 -0.0384
  190DMF     C1 2758   1.657   2.311   3.711 -0.2278 -0.1246  0.3194
  190DMF     N1 2759   1.747   2.395   3.794  0.4500 -0.0770  0.0288
  190DMF     C2 2760   1.863   2.455   3.727  0.2112 -0.8219 -0.0725
  190DMF     C3 2761   1.722   2.397   3.928 -0.6505  0.0594  0.3733
  190DMF     O1 2762   1.610   2.379   3.980 -0.6128 -0.1201 -0.2193
  190DMF     H1 2763   1.651   2.207   3.747 -0.8046  0.1994  1.1765
  190DMF     H2 2764   1.701   2.311   3.610  0.9750 -1.4774  0.8197
  190DMF     H3 2765   1.552   2.338   3.696  0.2263  0.5260 -1.8495
  190DMF     H4 2766   1.830   2.511   3.639  0.7225  1.0360  0.8985
  190DMF     H5 2767   1.940   2.379   3.710  1.0963  0.3586 -1.4255
  190DMF     H6 2768   1.909   2.530   3.793  3.1138  1.8467 -4.8502
  190DMF     H7 2769   1.811   2.423   3.989  0.6222 -1.9183 -0.5788
  191DMF     C1 2770   0.754   0.882   2.539  0.4498 -0.8008  0.3043
  191DMF     N1 2771   0.644   0.807   2.601 -0.4764 -0.0574  0.4469
  191DMF     C2 2772   0.664   0.660   2.606 -0.3932 -0.2442 -0.7722
  191DMF     C3 2773   0.518   0.857   2.615  0.6319  0.0578 -0.7182
  191DMF     O1 2774   0.498   0.978   2.607  0.1432  0.1158  0.2105
  191DMF     H1 2775   0.747   0.983   2.581 -2.4794 -0.1321 -1.6077
  191DMF     H2 2776   0.759   0.869   2.430 -2.0319  0.5407  0.0051
  191DMF     H3 2777   0.846   0.843   2.583  0.7485 -1.6040 -1.0116
  191DMF     H4 2778   0.723   0.634   2.694 -0.8647 -1.9138 -0.9478
  191DMF     H5 2779   0.720   0.635   2.514  0.4436  0.7721 -0.5581
  191DMF     H6 2780   0.569   0.606   2.607  0.3733 -1.5900 -0.4345
  191DMF     H7 2781   0.445   0.779   2.643  2.2074 -1.0788  0.2641
  192DMF     C1 2782   1.269   0.324   0.413 -0.4669 -0.4096  0.7454
  192DMF     N1 2783   1.354   0.214   0.462 -0.3892  0.4804  0.1268
  192DMF     C2 2784   1.413   0.123   0.366  0.4694  0.0844 -0.0299
  192DMF     C3 2785   1.390   0.200   0.593 -0.5101  0.1915 -0.5164
  192DMF     O1 2786   1.352   0.279   0.678 -0.3644  0.1774  0.3422
  192DMF     H1 2787   1.305   0.414   0.463 -1.4406  0.8681 -0.8068
  192DMF     H2 2788   1.164   0.295   0.425 -0.6103 -0.4236 -0.4351
  192DMF     H3 2789   1.293   0.352   0.309  1.0386 -2.2670  0.5783
  192DMF     H4 2790   1.517   0.155   0.365  0.2872  0.7097  1.0732
  192DMF     H5 2791   1.367   0.144   0.268 -0.9998  2.3974  1.1172
  192DMF     H6 2792   1.413   0.018   0.398 -0.4546  0.4408  1.1667
  192DMF     H7 2793   1.458   0.117   0.620  0.1213  0.5800 -0.8923
  193DMF     C1 2794   3.128   0.975   0.470 -0.2910  0.3727 -0.1480
  193DMF     N1 2795   3.268   0.963   0.428  0.4528 -0.5919 -0.3648
  193DMF     C2 2796   3.297   0.944   0.284  0.7808 -0.0585 -0.5212
  193DMF     C3 2797   3.373   0.984   0.518 -0.7983  0.4620 -0.1077
  193DMF     O1 2798   3.357   0.998   0.640  0.2427  0.4779  0.0012
  193DMF     H1 2799   3.105   0.877   0.514 -0.4540  0.9458  1.0943
  193DMF     H2 2800   3.075   0.987   0.375 -0.1008 -2.7279 -0.6848
  193DMF     H3 2801   3.108   1.061   0.535  0.3448 -0.5928  1.3632
  193DMF     H4 2802   3.213   0.921   0.217  0.2436  2.0061 -0.5908
  193DMF     H5 2803   3.359   0.854   0.276 -0.5864 -0.9333 -1.8371
  193DMF     H6 2804   3.344   1.039   0.257  0.3726  0.5403  0.8599
  193DMF     H7 2805   3.473   0.975   0.471 -1.2646 -1.4647 -0.7379
  194DMF     C1 2806   3.126   2.672   3.512  0.1772  0.1508 -0.3941
  194DMF     N1 2807   3.035   2.567   3.554  0.7802  0.0886 -0.2136
  194DMF     C2 2808   3.097   2.433   3.566 -0.3313  0.2779 -0.2935
  194DMF     C3 2809   2.911   2.586   3.610  0.2331  0.6931 -0.0437
  194DMF     O1 2810   2.869   2.697   3.616 -0.3963 -0.1261 -0.0716
  194DMF     H1 2811   3.086   2.768   3.547  2.0861  1.3929 -1.5199
  194DMF     H2 2812   3.140   2.669   3.404  0.3010 -0.9853 -0.3555
  194DMF     H3 2813   3.224   2.652   3.556  0.3097  2.2484  0.3417
  194DMF     H4 2814   3.025   2.350   3.571  0.8946 -0.7866  0.0657
  194DMF     H5 2815   3.154   2.433   3.660  0.1723  1.9210 -0.5927
  194DMF     H6 2816   3.170   2.433   3.484  1.4256 -1.0518  1.2345
  194DMF     H7 2817   2.861   2.493   3.644  1.2870  0.9199  2.2281
  195DMF     C1 2818   3.089   1.035   3.465 -0.3722 -0.0321 -0.0744
  195DMF     N1 2819   3.125   1.003   3.608 -0.4564 -0.6167  0.1186
  195DMF     C2 2820   3.137   1.117   3.701 -0.1686  0.4923 -0.6968
  195DMF     C3 2821   3.167   0.868   3.650  0.8741 -0.1019 -0.5601
  195DMF     O1 2822   3.172   0.773   3.577  0.0689 -0.1424  0.0953
  195DMF     H1 2823   2.996   1.092   3.460  1.0054  2.3410  0.7835
  195DMF     H2 2824   3.083   0.948   3.398 -0.1541 -0.3895  0.3611
  195DMF     H3 2825   3.161   1.102   3.417  0.7739 -0.0606  1.5526
  195DMF     H4 2826   3.065   1.197   3.680  0.0216  1.3588  1.8096
  195DMF     H5 2827   3.244   1.141   3.695  0.1154 -0.4958  0.1521
  195DMF     H6 2828   3.113   1.092   3.805 -1.0950 -2.5318 -1.5891
  195DMF     H7 2829   3.199   0.866   3.756  0.1321  2.5062 -0.2459
  196DMF     C1 2830   2.142   1.429   0.398 -0.3220  0.4714 -0.1488
  196DMF     N1 2831   2.206   1.443   0.267 -0.4827 -0.3898 -0.2270
  196DMF     C2 2832   2.227   1.330   0.184 -0.7845  0.3129  0.2925
  196DMF     C3 2833   2.210   1.570   0.216 -0.3526  0.0703  0.5377
  196DMF     O1 2834   2.190   1.672   0.281 -0.4481  0.1474 -0.1687
  196DMF     H1 2835   2.224   1.444   0.470  0.5689 -2.6455 -0.4617
  196DMF     H2 2836   2.090   1.334   0.410  1.8210 -0.5764  1.1268
  196DMF     H3 2837   2.066   1.504   0.424  1.9766  2.7015  0.3813
  196DMF     H4 2838   2.201   1.239   0.239 -0.0018  0.0007  0.1514
  196DMF     H5 2839   2.333   1.312   0.166 -0.8160  1.0814 -0.7101
  196DMF     H6 2840   2.163   1.344   0.096  0.0545 -0.7958 -0.5012
  196DMF     H7 2841   2.257   1.567   0.116 -0.1889 -0.1224  0.6194
  197DMF     C1 2842   3.229   1.349   0.280 -0.1867 -0.6486 -0.0110
  197DMF     N1 2843   3.099   1.332   0.348  0.2382  0.4485 -0.0284
  197DMF     C2 2844   3.084   1.366   0.490  0.2626 -0.0903  0.3799
  197DMF     C3 2845   2.990   1.284   0.281 -0.4963  0.0789  0.3207
  197DMF     O1 2846   2.998   1.256   0.159  0.1246  0.2554  0.0127
  197DMF     H1 2847   3.225   1.298   0.183 -1.6221 -1.0783  0.2625
  197DMF     H2 2848   3.316   1.315   0.337  0.7013  1.4971 -0.0243
  197DMF     H3 2849   3.247   1.455   0.257  1.3716 -0.4407  2.0528
  197DMF     H4 2850   3.015   1.451   0.502 -0.3974 -0.4978 -0.5105
  197DMF     H5 2851   3.181   1.399   0.531 -0.1474 -1.1634  2.2853
  197DMF     H6 2852   3.060   1.279   0.552 -0.9944  0.8588  1.2714
  197DMF     H7 2853   2.902   1.285   0.348 -1.0026  2.1747 -0.3436
  198DMF     C1 2854   0.783   2.708   2.876 -0.2942 -1.0763 -0.2606
  198DMF     N1 2855   0.919   2.758   2.896 -0.2542 -0.5681  0.7193
  198DMF     C2 2856   0.954   2.806   3.026 -0.0896 -0.1882 -0.0857
  198DMF     C3 2857   0.992   2.805   2.788  0.3138 -0.3460 -0.2668
  198DMF     O1 2858   0.943   2.791   2.678 -0.2904  0.1421  0.2146
  198DMF     H1 2859   0.776   2.604   2.913 -0.7893 -1.0582 -0.2959
  198DMF     H2 2860   0.751   2.708   2.771 -0.5907  0.6584 -0.1775
  198DMF     H3 2861   0.706   2.770   2.925  1.1313 -0.6772  1.5410
  198DMF     H4 2862   0.964   2.915   3.024  1.3906 -0.2905  0.7456
  198DMF     H5 2863   1.057   2.770   3.038 -0.2962 -0.3895  1.1629
  198DMF     H6 2864   0.893   2.767   3.109  0.5292 -1.4338 -0.2080
  198DMF     H7 2865   1.091   2.847   2.813 -0.2339 -0.4045  2.0791
  199DMF     C1 2866   0.573   3.142   1.442 -0.6921  0.2690  0.5297
  199DMF     N1 2867   0.684   3.205   1.528 -0.1234 -0.1614  0.4084
  199DMF     C2 2868   0.818   3.142   1.535  0.3250  0.5130  0.2637
  199DMF     C3 2869   0.665   3.334   1.582 -0.6111  0.4354 -0.4035
  199DMF     O1 2870   0.559   3.396   1.581 -0.0875 -0.1233 -0.9070
  199DMF     H1 2871   0.513   3.068   1.496 -0.1958 -2.1573 -2.1059
  199DMF     H2 2872   0.630   3.082   1.370 -0.5323  0.7306  0.2663
  199DMF     H3 2873   0.500   3.209   1.394 -0.6694  0.0711  0.2185
  199DMF     H4 2874   0.837   3.097   1.634  2.3410 -1.2269 -0.8694
  199DMF     H5 2875   0.891   3.221   1.512 -1.4665  1.8035 -1.1487
  199DMF     H6 2876   0.829   3.067   1.456 -2.0038 -2.3238  2.5337
  199DMF     H7 2877   0.762   3.373   1.616 -1.5105 -0.5315  3.4265
  200DMF     C1 2878   1.281   1.692   0.004 -0.1509 -0.1393 -0.3306
  200DMF     N1 2879   1.165   1.784  -0.008 -0.6740  0.6492  0.1613
  200DMF     C2 2880   1.096   1.827   0.110  0.5164  0.4217 -0.2517
  200DMF     C3 2881   1.116   1.826  -0.134 -0.5104 -0.7582 -0.1949
  200DMF     O1 2882   1.168   1.807  -0.242  0.1618  0.1006  0.4799
  200DMF     H1 2883   1.296   1.652   0.105 -1.2229 -1.5949 -0.7282
  200DMF     H2 2884   1.377   1.730  -0.033 -0.1219 -1.5987 -1.8550
  200DMF     H3 2885   1.256   1.609  -0.064  3.2502 -0.6963 -1.0076
  200DMF     H4 2886   1.036   1.915   0.087  1.5848  1.5440  1.1282
  200DMF     H5 2887   1.156   1.854   0.198  0.2413 -0.9196  0.3662
  200DMF     H6 2888   1.031   1.746   0.146 -0.7607  1.0431 -1.1394
  200DMF     H7 2889   1.026   1.891  -0.132 -1.0565 -1.4920 -0.8017
  201DMF     C1 2890   3.155   0.230   3.387  0.1398  0.5201 -0.0245
  201DMF     N1 2891   3.187   0.370   3.350  0.0960 -0.2634  0.5536
  201DMF     C2 2892   3.177   0.460   3.471 -0.2449 -0.3021 -0.0990
  201DMF     C3 2893   3.217   0.414   3.224 -0.0291  0.1905  0.3418
  201DMF     O1 2894   3.204   0.340   3.124 -0.1487 -0.0831 -0.1630
  201DMF     H1 2895   3.153   0.213   3.495 -0.3296  0.8916  0.0263
  201DMF     H2 2896   3.227   0.160   3.342  2.7991  1.6076  2.3375
  201DMF     H3 2897   3.052   0.215   3.354  0.1448  1.9595 -0.7511
  201DMF     H4 2898   3.187   0.560   3.427  1.2201 -1.6795 -3.1069
  201DMF     H5 2899   3.257   0.435   3.541 -0.0088  3.4774  1.0814
  201DMF     H6 2900   3.089   0.443   3.534  0.1859 -2.3114 -0.0073
  201DMF     H7 2901   3.250   0.519   3.216  2.8241 -0.6437  0.6987
  202DMF     C1 2902   0.659   3.235   0.617  0.0603  0.1216  0.2566
  202DMF     N1 2903   0.705   3.240   0.759 -0.0083  0.4856 -0.3418
  202DMF     C2 2904   0.728   3.374   0.811 -0.1528 -0.4741  0.1158
  202DMF     C3 2905   0.779   3.131   0.801 -0.9219 -0.3696 -0.3412
  202DMF     O1 2906   0.760   3.024   0.743 -0.2037  0.1691 -0.4878
  202DMF     H1 2907   0.743   3.219   0.548  0.6872 -1.3033  1.3306
  202DMF     H2 2908   0.618   3.332   0.586  0.3295  0.7689  1.9111
  202DMF     H3 2909   0.579   3.161   0.606 -0.3885  0.9370 -2.4750
  202DMF     H4 2910   0.643   3.440   0.790 -0.7618  0.1776  4.2107
  202DMF     H5 2911   0.818   3.410   0.760 -0.5901 -0.5582 -0.7254
  202DMF     H6 2912   0.745   3.372   0.919 -0.3163 -1.9868  0.1276
  202DMF     H7 2913   0.847   3.144   0.887 -0.1147  0.5544 -1.1033
  203DMF     C1 2914   0.658   0.713   0.791 -0.2415  0.2222 -0.3314
  203DMF     N1 2915   0.783   0.763   0.727  0.0317  0.1204 -0.0943
  203DMF     C2 2916   0.908   0.766   0.808  0.5986  0.4913 -0.1370
  203DMF     C3 2917   0.787   0.810   0.592  0.0590  0.2828  0.3339
  203DMF     O1 2918   0.686   0.806   0.519 -0.3082 -0.3187  0.2253
  203DMF     H1 2919   0.610   0.788   0.855 -0.7365 -1.5700  1.4379
  203DMF     H2 2920   0.682   0.638   0.867 -1.7395  1.6537  1.5876
  203DMF     H3 2921   0.581   0.671   0.725 -0.5268 -2.2688  1.4952
  203DMF     H4 2922   0.996   0.758   0.744  0.0881 -2.0621 -0.5894
  203DMF     H5 2923   0.915   0.676   0.872 -0.7357  1.2616  1.1384
  203DMF     H6 2924   0.907   0.867   0.852  0.8433  0.4312  0.0074
  203DMF     H7 2925   0.886   0.842   0.554  1.4527 -0.6436  3.0554
  204DMF     C1 2926   1.252   3.336   1.475 -0.6332  0.5830  0.4648
  204DMF     N1 2927   1.329   3.456   1.506  0.1706  0.4821 -1.0593
  204DMF     C2 2928   1.256   3.575   1.563 -0.0133  0.1960 -0.4051
  204DMF     C3 2929   1.471   3.466   1.484 -0.9553  0.0126 -0.1272
  204DMF     O1 2930   1.527   3.378   1.425 -0.6140 -0.4756  0.3557
  204DMF     H1 2931   1.194   3.297   1.559 -1.4593  0.7766 -0.0067
  204DMF     H2 2932   1.321   3.258   1.441 -0.1636  1.1124  0.1909
  204DMF     H3 2933   1.193   3.355   1.385  0.7970 -0.4350 -0.7150
  204DMF     H4 2934   1.320   3.648   1.613 -0.7293 -0.1434  1.0229
  204DMF     H5 2935   1.178   3.534   1.628  0.4349 -3.0711 -1.8102
  204DMF     H6 2936   1.211   3.620   1.474 -2.4241 -1.4095 -0.0366
  204DMF     H7 2937   1.528   3.552   1.523  0.3802 -0.4276 -1.0862
  205DMF     C1 2938   2.624   1.826   2.269 -0.3483 -0.0212  0.8073
  205DMF     N1 2939   2.759   1.869   2.237  0.5953  0.0065  0.4895
  205DMF     C2 2940   2.859   1.758   2.227  0.0142 -0.0418  0.4318
  205DMF     C3 2941   2.804   2.001   2.237 -0.0846  0.0136  0.2089
  205DMF     O1 2942   2.725   2.091   2.262 -0.5241 -0.2747 -0.0903
  205DMF     H1 2943   2.573   1.771   2.188 -0.2950 -0.3388  0.9859
  205DMF     H2 2944   2.566   1.915   2.298 -0.4979  0.6028 -1.3338
  205DMF     H3 2945   2.633   1.768   2.362  1.8652  1.0372  1.2704
  205DMF     H4 2946   2.817   1.688   2.153 -0.9722  0.6061  0.3563
  205DMF     H5 2947   2.877   1.714   2.326 -1.6058  0.9008  1.1607
  205DMF     H6 2948   2.944   1.797   2.171 -0.2898  0.6358  0.4393
  205DMF     H7 2949   2.911   2.016   2.214 -0.1355 -0.4697 -0.3500
  206DMF     C1 2950   0.802   2.289   0.085 -0.1021  1.1157 -0.2480
  206DMF     N1 2951   0.764   2.425   0.052  0.2407  0.4656  0.3699
  206DMF     C2 2952   0.638   2.488   0.091 -0.2150  0.0154  0.2583
  206DMF     C3 2953   0.868   2.508   0.003  0.4264 -0.4661  0.4698
  206DMF     O1 2954   0.979   2.470  -0.028 -0.3741 -0.0779 -0.4916
  206DMF     H1 2955   0.897   2.284   0.138 -0.5961  0.9118  0.6273
  206DMF     H2 2956   0.817   2.227  -0.005  1.0029 -2.0628  2.0362
  206DMF     H3 2957   0.732   2.243   0.156  0.9897  0.9185  0.6992
  206DMF     H4 2958   0.581   2.420   0.155 -0.1712 -0.4336 -0.1746
  206DMF     H5 2959   0.588   2.505  -0.005  0.0295 -0.6469  0.0100
  206DMF     H6 2960   0.645   2.588   0.134  3.0577  0.6493 -1.5844
  206DMF     H7 2961   0.829   2.609  -0.019 -1.7900 -1.3006  0.4804
  207DMF     C1 2962   3.359   0.522   0.303  0.3502 -0.2913  0.0186
  207DMF     N1 2963   3.390   0.483   0.163  0.3056 -0.1047 -0.0205
  207DMF     C2 2964   3.434   0.585   0.059  0.1407 -0.3694  0.2539
  207DMF     C3 2965   3.399   0.348   0.126  0.0175 -0.7433 -0.2126
  207DMF     O1 2966   3.364   0.264   0.207  0.1618 -0.1596 -0.3549
  207DMF     H1 2967   3.299   0.449   0.358 -1.1999  0.8093 -0.1634
  207DMF     H2 2968   3.323   0.625   0.290 -3.0245 -1.3867  0.0781
  207DMF     H3 2969   3.455   0.540   0.352  0.8766 -0.9363 -0.7710
  207DMF     H4 2970   3.352   0.644   0.018  0.0174  2.6114  4.5019
  207DMF     H5 2971   3.485   0.532  -0.022 -0.1465  0.7675 -0.6783
  207DMF     H6 2972   3.500   0.657   0.109 -0.2952  0.7766 -0.8258
  207DMF     H7 2973   3.445   0.323   0.028  1.0909 -2.2247  0.6329
  208DMF     C1 2974   1.318   2.359   1.520  0.4902  0.6525  0.2037
  208DMF     N1 2975   1.426   2.454   1.478 -0.4552  0.5925 -0.3336
  208DMF     C2 2976   1.525   2.398   1.381 -0.3223  0.1242  0.6410
  208DMF     C3 2977   1.438   2.581   1.530  0.4763  0.0408  0.3417
  208DMF     O1 2978   1.355   2.624   1.610 -0.0814  0.2619  0.7193
  208DMF     H1 2979   1.216   2.394   1.499 -0.3135 -1.0593  1.2261
  208DMF     H2 2980   1.335   2.327   1.624 -0.3049  1.5863  0.6375
  208DMF     H3 2981   1.325   2.271   1.455  0.9334 -1.2984  2.8182
  208DMF     H4 2982   1.629   2.427   1.398 -0.0146  0.1249 -1.2238
  208DMF     H5 2983   1.504   2.433   1.280 -0.1375 -0.4962  0.3830
  208DMF     H6 2984   1.533   2.289   1.386  0.3467  0.1773  0.7459
  208DMF     H7 2985   1.525   2.634   1.487 -0.0955 -1.2118 -2.4469
  209DMF     C1 2986   1.376   0.813   0.809  0.8614 -0.5207 -0.4368
  209DMF     N1 2987   1.335   0.676   0.779 -0.0807  0.4610 -0.2988
  209DMF     C2 2988   1.274   0.664   0.648 -0.2636  0.4342  0.4614
  209DMF     C3 2989   1.358   0.569   0.861  0.1928 -0.2986  0.1087
  209DMF     O1 2990   1.404   0.584   0.975 -0.3744  0.6023 -0.2451
  209DMF     H1 2991   1.334   0.848   0.904  1.4630  0.2765 -0.4580
  209DMF     H2 2992   1.340   0.878   0.728  0.6882 -0.3009 -0.1840
  209DMF     H3 2993   1.486   0.820   0.809  0.7765  1.1163 -0.9505
  209DMF     H4 2994   1.344   0.688   0.567  0.4314 -2.0114  0.3015
  209DMF     H5 2995   1.175   0.711   0.639 -1.5095 -1.6093  2.7855
  209DMF     H6 2996   1.255   0.556   0.634 -1.9703  0.8617 -0.7363
  209DMF     H7 2997   1.342   0.468   0.818 -1.2361 -0.2869  0.5956
  210DMF     C1 2998   0.241   1.136   0.017 -0.4761 -0.4217 -0.3237
  210DMF     N1 2999   0.278   1.023  -0.065 -0.2726 -0.6255 -0.3302
  210DMF     C2 3000   0.409   1.020  -0.120 -0.5077  0.0179 -0.9011
  210DMF     C3 3001   0.184   0.918  -0.081 -0.3365  0.2138  0.5403
  210DMF     O1 3002   0.071   0.923  -0.027 -0.3775  0.3231 -0.1311
  210DMF     H1 3003   0.153   1.192  -0.018  0.6997  1.9635  0.3932
  210DMF     H2 3004   0.328   1.204   0.017 -0.9725  0.2214  0.0635
  210DMF     H3 3005   0.231   1.103   0.121  1.2582 -2.0120 -0.6389
  210DMF     H4 3006   0.413   1.093  -0.202 -1.6532  0.0720 -0.9103
  210DMF     H5 3007   0.423   0.925  -0.174 -0.1521 -0.1450 -0.5244
  210DMF     H6 3008   0.480   1.030  -0.037 -1.0713  1.1605 -0.5542
  210DMF     H7 3009   0.214   0.836  -0.150  1.6778  0.3889  1.1795
  211DMF     C1 3010   1.410   2.763   3.002 -0.5821  0.2447 -0.5940
  211DMF     N1 3011   1.463   2.901   2.999 -0.4671  0.1808 -0.0793
  211DMF     C2 3012   1.443   2.970   2.877 -0.4841  0.7603 -0.0623
  211DMF     C3 3013   1.535   2.960   3.107  0.0998  0.2111 -0.5178
  211DMF     O1 3014   1.552   2.900   3.211 -0.0570 -0.3323  0.1401
  211DMF     H1 3015   1.482   2.700   2.948 -1.9274 -1.5029 -0.4108
  211DMF     H2 3016   1.307   2.757   2.963 -0.7669 -0.4740 -0.0085
  211DMF     H3 3017   1.409   2.721   3.104 -1.1967  1.7326  0.0197
  211DMF     H4 3018   1.521   2.935   2.808  1.1730  1.2178  1.5280
  211DMF     H5 3019   1.452   3.079   2.878  1.5966  0.6109 -0.6137
  211DMF     H6 3020   1.347   2.940   2.834  0.3484 -0.2561 -1.2645
  211DMF     H7 3021   1.585   3.055   3.083 -0.3270  0.4574 -0.4333
  212DMF     C1 3022   1.938   2.716   0.648  0.4525 -0.2183 -0.2153
  212DMF     N1 3023   1.937   2.684   0.507 -0.0318  0.2268  0.1803
  212DMF     C2 3024   1.979   2.545   0.459 -0.8690  0.3298 -0.1152
  212DMF     C3 3025   1.857   2.763   0.424  0.4965 -0.1763  0.7643
  212DMF     O1 3026   1.807   2.868   0.453  0.2187 -0.0303 -0.4445
  212DMF     H1 3027   1.847   2.678   0.696  1.3445 -2.6564 -0.3923
  212DMF     H2 3028   1.948   2.825   0.653  0.5726 -0.2442  0.0681
  212DMF     H3 3029   2.018   2.665   0.702 -0.9595 -0.1318  2.0371
  212DMF     H4 3030   2.050   2.550   0.376  1.0195  1.2959  1.4989
  212DMF     H5 3031   1.891   2.495   0.418  0.7869 -0.5971 -2.6260
  212DMF     H6 3032   2.017   2.479   0.538 -0.7673 -3.5006 -3.2236
  212DMF     H7 3033   1.850   2.707   0.329 -2.4065  0.0493  0.7906
  213DMF     C1 3034   1.724   1.543   0.655 -0.0109 -0.2356 -0.0065
  213DMF     N1 3035   1.705   1.404   0.712  0.2959 -0.2246  0.1559
  213DMF     C2 3036   1.827   1.321   0.719 -0.3577 -0.0626  0.1500
  213DMF     C3 3037   1.600   1.386   0.799  0.3233  0.0244 -0.4281
  213DMF     O1 3038   1.526   1.483   0.828 -0.3011  0.3474  0.0880
  213DMF     H1 3039   1.643   1.576   0.589  0.1723  0.2818  0.0288
  213DMF     H2 3040   1.817   1.559   0.600  0.8599 -0.3104  1.4046
  213DMF     H3 3041   1.731   1.614   0.738 -1.2345 -1.6312  1.3294
  213DMF     H4 3042   1.823   1.251   0.803  0.8248 -0.9840 -0.5470
  213DMF     H5 3043   1.915   1.386   0.719 -0.8366  0.5985  1.8705
  213DMF     H6 3044   1.834   1.260   0.628 -1.1411 -0.0104  0.0505
  213DMF     H7 3045   1.596   1.290   0.853 -0.6590  0.0343 -0.4715
  214DMF     C1 3046   1.217   2.017   1.502 -0.4913 -0.0137 -0.3182
  214DMF     N1 3047   1.097   2.089   1.443  0.1096  0.7199 -0.1797
  214DMF     C2 3048   0.996   2.140   1.546 -0.6998 -0.5273 -0.2248
  214DMF     C3 3049   1.103   2.141   1.317  0.4259 -0.5829  0.0137
  214DMF     O1 3050   1.200   2.116   1.244 -0.3066 -0.1625 -0.1691
  214DMF     H1 3051   1.295   2.010   1.425 -0.7815 -2.0576 -0.4494
  214DMF     H2 3052   1.201   1.919   1.549  3.6950 -1.5121 -1.7759
  214DMF     H3 3053   1.258   2.089   1.573  2.7185  0.1777 -2.2521
  214DMF     H4 3054   1.007   2.081   1.638 -0.2472 -1.1325 -0.6697
  214DMF     H5 3055   0.891   2.130   1.515 -0.8954  0.3004  0.1409
  214DMF     H6 3056   1.029   2.244   1.561  1.4110 -1.3289  0.9769
  214DMF     H7 3057   1.014   2.203   1.292  1.3708  1.0097  0.5046
  215DMF     C1 3058   2.711   3.424   2.497 -0.1059 -0.5181  0.2855
  215DMF     N1 3059   2.731   3.548   2.420  0.1692  0.1706 -0.4274
  215DMF     C2 3060   2.703   3.550   2.277 -0.9319 -0.2819  1.0633
  215DMF     C3 3061   2.781   3.662   2.484  0.3834 -0.6025 -0.2528
  215DMF     O1 3062   2.796   3.671   2.603  0.8371  0.3772 -0.0526
  215DMF     H1 3063   2.795   3.403   2.564  0.2221 -0.5344 -0.1250
  215DMF     H2 3064   2.692   3.347   2.422  0.0574 -0.2888  0.0044
  215DMF     H3 3065   2.621   3.435   2.558  0.1947  2.1832  0.3274
  215DMF     H4 3066   2.803   3.540   2.232 -0.9080 -0.3001  1.1200
  215DMF     H5 3067   2.665   3.650   2.252 -0.9716 -1.2453 -3.0360
  215DMF     H6 3068   2.633   3.471   2.250 -0.1924 -0.1831 -1.1925
  215DMF     H7 3069   2.790   3.748   2.415 -1.2506  0.1495  0.4705
  216DMF     C1 3070   1.246   1.689   2.232  0.3977  0.3326 -0.5488
  216DMF     N1 3071   1.344   1.573   2.235  0.0610  0.4727  0.1173
  216DMF     C2 3072   1.285   1.434   2.254 -0.5497  0.0911 -0.2276
  216DMF     C3 3073   1.479   1.598   2.246  0.5704 -0.3544  0.6842
  216DMF     O1 3074   1.527   1.717   2.250  0.3949 -0.0084  0.4392
  216DMF     H1 3075   1.229   1.721   2.335 -0.7193 -0.1866 -0.5644
  216DMF     H2 3076   1.155   1.655   2.181  0.8033 -0.5869 -0.6693
  216DMF     H3 3077   1.295   1.777   2.188  0.4947  0.6036  0.0990
  216DMF     H4 3078   1.246   1.425   2.355  3.1312  0.1114  1.2814
  216DMF     H5 3079   1.358   1.354   2.236  0.2773  0.9288 -0.6552
  216DMF     H6 3080   1.194   1.426   2.193  0.8882  0.0444 -2.4595
  216DMF     H7 3081   1.540   1.508   2.264 -0.7323 -1.1860  0.9709
  217DMF     C1 3082   2.863   1.615   2.685  0.7038  0.1642  0.1581
  217DMF     N1 3083   2.764   1.726   2.681  0.1360 -0.2703 -0.2785
  217DMF     C2 3084   2.809   1.848   2.619 -0.4225  0.2322 -0.3147
  217DMF     C3 3085   2.630   1.719   2.726  0.3004  0.2369  0.1382
  217DMF     O1 3086   2.585   1.628   2.793  0.1635  0.1420 -0.3321
  217DMF     H1 3087   2.956   1.653   2.641  1.2304 -0.0074  1.1125
  217DMF     H2 3088   2.823   1.538   2.617 -2.3297  0.8279  1.1343
  217DMF     H3 3089   2.884   1.568   2.781 -2.4196  0.0717  0.8533
  217DMF     H4 3090   2.910   1.857   2.579 -0.7590  1.6419 -0.8996
  217DMF     H5 3091   2.800   1.931   2.691 -1.4065  0.3344 -0.5455
  217DMF     H6 3092   2.740   1.873   2.537  0.1944  0.0247 -0.8995
  217DMF     H7 3093   2.567   1.802   2.688  1.8403  0.3412 -2.3380
  218DMF     C1 3094   2.772   1.991   3.266 -0.3052  0.2782  0.2924
  218DMF     N1 3095   2.883   2.063   3.218  0.4318  0.7166  0.4154
  218DMF     C2 3096   2.921   2.054   3.071 -0.5461  0.1207  0.2471
  218DMF     C3 3097   2.955   2.144   3.311 -0.1124  0.4116 -0.0055
  218DMF     O1 3098   2.903   2.174   3.422  0.0288 -0.5331  0.1356
  218DMF     H1 3099   2.722   1.939   3.183 -1.5425 -0.3277  1.4002
  218DMF     H2 3100   2.704   2.066   3.310 -0.3296  0.7819 -0.5920
  218DMF     H3 3101   2.802   1.913   3.337  2.0946 -1.0856 -2.1317
  218DMF     H4 3102   2.834   2.026   3.011  0.1007  2.4862 -1.8418
  218DMF     H5 3103   3.013   1.996   3.053 -0.3446  0.2906  0.7177
  218DMF     H6 3104   2.938   2.157   3.036  2.9917  0.2869  2.2504
  218DMF     H7 3105   3.053   2.181   3.278  0.3951 -1.3947 -0.5732
  219DMF     C1 3106   0.450   0.636   3.143  0.0905  0.5180 -1.0691
  219DMF     N1 3107   0.346   0.714   3.083  0.0857  0.4550  0.2986
  219DMF     C2 3108   0.280   0.824   3.166 -0.6268  0.1470  0.2027
  219DMF     C3 3109   0.312   0.681   2.949  0.1429  0.1056  0.5880
  219DMF     O1 3110   0.375   0.604   2.882 -0.1594  0.2477 -0.6154
  219DMF     H1 3111   0.409   0.545   3.188  0.6647  0.6368 -0.3060
  219DMF     H2 3112   0.495   0.695   3.223 -1.2993 -0.2164  0.2997
  219DMF     H3 3113   0.533   0.607   3.077 -0.0308 -3.0958  0.2369
  219DMF     H4 3114   0.360   0.887   3.206  0.1805  0.6014 -2.0332
  219DMF     H5 3115   0.222   0.768   3.240 -0.7185 -1.0972 -0.7823
  219DMF     H6 3116   0.212   0.881   3.101 -0.2240  2.5159  1.8033
  219DMF     H7 3117   0.221   0.733   2.916  1.1455  1.4052 -0.1769
  220DMF     C1 3118   1.045   0.612   2.477 -0.4517  0.0832 -0.0606
  220DMF     N1 3119   1.083   0.709   2.373 -0.4152  0.3986  0.2992
  220DMF     C2 3120   1.225   0.744   2.349  0.3866 -0.2161  0.0483
  220DMF     C3 3121   0.992   0.751   2.278  1.0559  0.7346  0.3596
  220DMF     O1 3122   0.877   0.715   2.268 -0.0450  0.2841  0.0841
  220DMF     H1 3123   0.980   0.649   2.558  0.8589  1.0322  0.5847
  220DMF     H2 3124   1.134   0.579   2.533 -2.5091 -1.8826  2.1790
  220DMF     H3 3125   0.996   0.523   2.436  1.6150 -0.9606 -0.3497
  220DMF     H4 3126   1.246   0.844   2.389 -0.5353  0.2468 -0.6316
  220DMF     H5 3127   1.245   0.748   2.241  0.3465  0.2211  0.0564
  220DMF     H6 3128   1.288   0.674   2.406  1.4299  0.8318  0.2209
  220DMF     H7 3129   1.029   0.834   2.215  0.1300  0.7865 -0.1341
  221DMF     C1 3130   1.626   1.317   0.365 -0.5092 -0.6447  0.4227
  221DMF     N1 3131   1.592   1.182   0.423  0.1734 -0.2423  0.4523
  221DMF     C2 3132   1.698   1.082   0.443 -0.3656 -0.4282 -0.2880
  221DMF     C3 3133   1.460   1.148   0.458 -0.3376 -0.1679 -0.1452
  221DMF     O1 3134   1.379   1.239   0.471  0.0571  0.4476  0.4444
  221DMF     H1 3135   1.571   1.398   0.413 -0.1019  0.7302 -1.3784
  221DMF     H2 3136   1.592   1.325   0.261  0.9378  0.1747 -0.0087
  221DMF     H3 3137   1.734   1.337   0.365 -0.3140 -1.5643 -1.2816
  221DMF     H4 3138   1.728   1.073   0.548  0.1329 -2.4354 -0.5865
  221DMF     H5 3139   1.789   1.131   0.406 -0.3135  1.5630  2.3542
  221DMF     H6 3140   1.673   0.987   0.396  0.1503  0.5939 -2.6967
  221DMF     H7 3141   1.450   1.042   0.490 -0.0827 -1.0337 -2.8581
  222DMF     C1 3142   2.421   1.325   0.927  0.5746 -0.6364 -0.4788
  222DMF     N1 3143   2.282   1.392   0.917  0.6394 -0.0751  0.2942
  222DMF     C2 3144   2.223   1.428   0.785 -1.1526  0.6440  0.7200
  222DMF     C3 3145   2.193   1.393   1.024 -0.4602 -0.0244  0.4865
  222DMF     O1 3146   2.219   1.343   1.134 -0.2160 -0.0949 -0.2245
  222DMF     H1 3147   2.494   1.369   0.858  0.8488 -0.7622 -0.2671
  222DMF     H2 3148   2.406   1.221   0.897  0.8183 -0.1590 -2.3601
  222DMF     H3 3149   2.444   1.336   1.033  0.9827 -2.0269 -0.4141
  222DMF     H4 3150   2.302   1.484   0.733  0.9468 -3.1244 -0.3548
  222DMF     H5 3151   2.130   1.485   0.785 -1.3888  0.2641  0.0981
  222DMF     H6 3152   2.199   1.335   0.731  0.1189  0.6136  0.1941
  222DMF     H7 3153   2.099   1.448   1.008  0.5606  2.2642  2.0087
  223DMF     C1 3154   0.778   1.219   1.185  0.0648  0.0631 -0.3339
  223DMF     N1 3155   0.764   1.135   1.065 -0.0090 -0.0405  0.0596
  223DMF     C2 3156   0.723   0.997   1.076 -0.0951  0.3390  0.2007
  223DMF     C3 3157   0.763   1.192   0.939 -0.6600 -0.4596 -0.4828
  223DMF     O1 3158   0.795   1.311   0.922  0.9390  0.7388  0.7128
  223DMF     H1 3159   0.775   1.167   1.281  2.2154  2.5240  1.1500
  223DMF     H2 3160   0.697   1.293   1.179 -1.1477 -1.1774  0.5080
  223DMF     H3 3161   0.873   1.275   1.190  0.6042 -0.9477  0.8710
  223DMF     H4 3162   0.716   0.946   0.979  2.4875  0.6148 -0.1533
  223DMF     H5 3163   0.625   0.992   1.125 -0.3122 -0.1081 -0.2710
  223DMF     H6 3164   0.795   0.943   1.138  0.3375  1.3231  0.5630
  223DMF     H7 3165   0.753   1.124   0.853  1.0071 -0.3108 -0.8094
  224DMF     C1 3166   2.782   2.651   0.979  0.0271 -0.5822  0.2466
  224DMF     N1 3167   2.741   2.668   0.835 -0.3579 -0.1635 -0.1420
  224DMF     C2 3168   2.594   2.690   0.804 -0.1685  0.0650 -0.4021
  224DMF     C3 3169   2.837   2.683   0.729  0.1076  0.6743  0.2316
  224DMF     O1 3170   2.954   2.664   0.750  0.2107  0.0585  0.3661
  224DMF     H1 3171   2.852   2.733   0.999 -0.5598  0.9275 -3.4617
  224DMF     H2 3172   2.851   2.566   0.986 -1.0037 -1.5294 -0.8604
  224DMF     H3 3173   2.686   2.645   1.032 -0.1226  3.6978  0.6059
  224DMF     H4 3174   2.562   2.780   0.858 -3.0313  0.2313 -2.2514
  224DMF     H5 3175   2.535   2.611   0.852 -0.4597  1.5849  1.8037
  224DMF     H6 3176   2.562   2.702   0.700 -1.0357 -1.5310 -0.3343
  224DMF     H7 3177   2.790   2.700   0.630 -0.0560  0.0276  0.1954
  225DMF     C1 3178   0.542   2.029   0.089 -0.1989  0.5952  0.5863
  225DMF     N1 3179   0.623   1.970   0.194  0.0723 -0.2978 -0.3659
  225DMF     C2 3180   0.574   1.981   0.335  0.6124 -0.0101 -0.4566
  225DMF     C3 3181   0.739   1.901   0.165  0.5616 -0.0362 -0.0944
  225DMF     O1 3182   0.799   1.904   0.057 -0.2866  0.4227 -0.1505
  225DMF     H1 3183   0.568   1.978  -0.004 -1.0291  0.1507  0.5927
  225DMF     H2 3184   0.568   2.136   0.088  1.4226  0.2066 -0.5776
  225DMF     H3 3185   0.436   2.016   0.112 -0.9425  0.8687 -2.4498
  225DMF     H4 3186   0.465   1.978   0.341  0.5325 -0.1220 -1.6943
  225DMF     H5 3187   0.617   2.071   0.380  0.9741 -0.6684  0.5228
  225DMF     H6 3188   0.609   1.893   0.390 -0.5490  0.2656  0.7434
  225DMF     H7 3189   0.780   1.855   0.257 -1.4716 -0.4515  0.6281
  226DMF     C1 3190   0.440   1.339   2.248 -0.0776  0.6434 -0.1444
  226DMF     N1 3191   0.354   1.282   2.361  0.0016  0.6455 -0.1786
  226DMF     C2 3192   0.396   1.291   2.505 -0.1684  0.0602  0.1053
  226DMF     C3 3193   0.260   1.185   2.329 -1.1081  0.1699  0.6958
  226DMF     O1 3194   0.239   1.152   2.213 -0.0322 -0.1095  0.2349
  226DMF     H1 3195   0.480   1.251   2.197 -0.0745  0.2343  0.5555
  226DMF     H2 3196   0.520   1.403   2.289  0.9912 -0.1644 -0.9542
  226DMF     H3 3197   0.375   1.399   2.184  0.5789  3.7991  2.0136
  226DMF     H4 3198   0.367   1.394   2.533 -0.1266 -0.1819  1.0454
  226DMF     H5 3199   0.505   1.279   2.510 -0.1293  1.2927  2.9444
  226DMF     H6 3200   0.339   1.220   2.566  0.2567  0.6144  1.1679
  226DMF     H7 3201   0.212   1.131   2.413 -0.0168  1.0679  1.9201
  227DMF     C1 3202   1.502   1.874   1.189 -0.0202 -0.1565 -0.2575
  227DMF     N1 3203   1.605   1.966   1.171  0.0613  0.4710  0.3676
  227DMF     C2 3204   1.568   2.106   1.172  0.4356 -0.1737 -0.5063
  227DMF     C3 3205   1.738   1.926   1.139  0.0777  0.2918 -0.3152
  227DMF     O1 3206   1.764   1.812   1.112 -0.0798 -0.1756 -0.1026
  227DMF     H1 3207   1.483   1.821   1.095 -1.0011 -0.3131  0.0180
  227DMF     H2 3208   1.411   1.924   1.226  0.0679  0.5425 -0.9699
  227DMF     H3 3209   1.533   1.802   1.265 -0.6842 -0.1483  0.0247
  227DMF     H4 3210   1.532   2.134   1.072 -2.2462  1.3299  0.8234
  227DMF     H5 3211   1.652   2.168   1.204 -0.8236  0.7193  1.1298
  227DMF     H6 3212   1.489   2.129   1.244 -0.0277  1.1789 -1.4341
  227DMF     H7 3213   1.809   2.011   1.131  0.9043 -0.4765 -1.3033
  228DMF     C1 3214   1.353   2.990   1.549  0.5914 -0.5340 -0.7296
  228DMF     N1 3215   1.414   2.975   1.407  0.3672 -0.5701 -0.3838
  228DMF     C2 3216   1.539   3.042   1.375  0.0426 -0.0207 -0.5813
  228DMF     C3 3217   1.357   2.881   1.318  0.3987 -0.1995  0.0852
  228DMF     O1 3218   1.259   2.815   1.344 -0.7059 -0.1016 -0.3049
  228DMF     H1 3219   1.255   3.039   1.543  0.1560 -1.2856  0.2991
  228DMF     H2 3220   1.420   3.045   1.617  0.3802  0.2753 -1.1574
  228DMF     H3 3221   1.333   2.889   1.585  2.1015 -1.4342 -2.3040
  228DMF     H4 3222   1.579   3.106   1.455  5.2800 -0.3359 -2.7137
  228DMF     H5 3223   1.515   3.099   1.284  2.2589  0.1284 -1.1183
  228DMF     H6 3224   1.618   2.969   1.350 -0.0776  0.5039 -2.6018
  228DMF     H7 3225   1.417   2.874   1.225 -0.3463 -1.8218 -0.2955
  229DMF     C1 3226   1.649   0.407   1.568  0.1839  0.1322 -0.6064
  229DMF     N1 3227   1.707   0.433   1.433 -0.0435  0.1071 -0.7261
  229DMF     C2 3228   1.610   0.443   1.321  0.0251 -0.3757  0.0989
  229DMF     C3 3229   1.842   0.412   1.418 -0.2214  0.3407  0.7168
  229DMF     O1 3230   1.917   0.371   1.505  0.0310 -0.1282  0.8173
  229DMF     H1 3231   1.546   0.445   1.570  0.2270  0.2525 -0.6862
  229DMF     H2 3232   1.705   0.455   1.650 -0.2205 -0.6607  0.1400
  229DMF     H3 3233   1.651   0.300   1.591  1.5975 -0.1159 -1.7813
  229DMF     H4 3234   1.634   0.518   1.245  1.5383 -1.1955 -0.2521
  229DMF     H5 3235   1.515   0.463   1.372  0.4727  2.2535 -0.0032
  229DMF     H6 3236   1.612   0.343   1.277  2.5386 -0.4699  0.3277
  229DMF     H7 3237   1.883   0.435   1.318  1.5431 -0.3284  1.2614
  230DMF     C1 3238   0.037   3.350   1.105  0.0918 -0.7012 -0.0294
  230DMF     N1 3239  -0.002   3.387   0.965 -0.8640  0.1759  0.0593
  230DMF     C2 3240  -0.038   3.278   0.874 -0.1306  0.6336  0.5927
  230DMF     C3 3241  -0.008   3.517   0.927  0.3560  0.7775  0.0134
  230DMF     O1 3242   0.040   3.606   0.996 -0.0697 -0.1257  0.0545
  230DMF     H1 3243   0.042   3.240   1.113 -1.5521 -0.9018 -1.5191
  230DMF     H2 3244  -0.037   3.399   1.168 -1.2129  0.1733 -2.1994
  230DMF     H3 3245   0.138   3.386   1.128  0.1389 -1.3807  0.8508
  230DMF     H4 3246  -0.010   3.178   0.907  0.4108 -0.4563 -2.9646
  230DMF     H5 3247   0.010   3.295   0.777  0.6132 -2.3311  0.3959
  230DMF     H6 3248  -0.147   3.283   0.856 -0.0905 -0.5918 -0.0754
  230DMF     H7 3249  -0.047   3.531   0.825  0.6556  2.5038  0.1345
  231DMF     C1 3250   3.143   3.175   3.701  0.0167 -0.2024  0.4019
  231DMF     N1 3251   3.261   3.229   3.637 -0.0376  0.3139 -0.0495
  231DMF     C2 3252   3.299   3.365   3.681  0.3804 -0.5602 -0.2134
  231DMF     C3 3253   3.346   3.149   3.552  0.1136 -0.2506  0.2090
  231DMF     O1 3254   3.339   3.029   3.540 -0.2061 -0.2580 -0.0875
  231DMF     H1 3255   3.133   3.236   3.792  1.7863  0.2582  0.3046
  231DMF     H2 3256   3.159   3.070   3.727  1.2367 -0.0511  0.2524
  231DMF     H3 3257   3.047   3.189   3.648  0.9224  2.7785 -0.5607
  231DMF     H4 3258   3.377   3.359   3.758  1.5591 -0.6596 -1.4022
  231DMF     H5 3259   3.212   3.415   3.725 -0.7915 -2.3825 -0.4188
  231DMF     H6 3260   3.345   3.420   3.598  1.9774  0.3715  1.2518
  231DMF     H7 3261   3.417   3.211   3.493  1.2671 -1.6263  0.1319
  232DMF     C1 3262   2.841   0.100   0.259  0.7208 -0.0575 -0.9751
  232DMF     N1 3263   2.977   0.114   0.196  0.1696 -0.4368 -0.0836
  232DMF     C2 3264   3.052   0.241   0.205 -0.2296  0.5050 -0.1073
  232DMF     C3 3265   3.035   0.005   0.139 -0.0526  0.1898  0.0439
  232DMF     O1 3266   2.985  -0.103   0.142 -0.5078 -0.1767  0.0255
  232DMF     H1 3267   2.806   0.186   0.318  1.3045 -0.1195 -0.5422
  232DMF     H2 3268   2.844   0.007   0.316  2.1622 -0.4871 -1.7303
  232DMF     H3 3269   2.758   0.099   0.188 -0.4799  2.3990  0.3238
  232DMF     H4 3270   3.095   0.277   0.110  2.6036 -2.9933 -0.2888
  232DMF     H5 3271   3.131   0.235   0.281 -1.3356 -0.0997  0.9989
  232DMF     H6 3272   2.978   0.317   0.232 -1.1344 -0.2890 -0.3180
  232DMF     H7 3273   3.136   0.030   0.102 -0.5297  0.7739 -0.8922
  233DMF     C1 3274   0.825   0.987   1.479 -0.0778 -0.0197  0.0389
  233DMF     N1 3275   0.713   1.058   1.539 -0.4318 -0.3007 -0.2033
  233DMF     C2 3276   0.584   0.988   1.537 -0.6548 -0.0847  0.2257
  233DMF     C3 3277   0.725   1.194   1.573  0.2576  0.1766  0.0243
  233DMF     O1 3278   0.829   1.256   1.564  0.0079  0.1358 -0.3894
  233DMF     H1 3279   0.826   0.879   1.495  1.1361 -0.1078 -0.5563
  233DMF     H2 3280   0.919   1.026   1.521  1.2001 -1.7183 -1.1935
  233DMF     H3 3281   0.825   1.003   1.371  0.1823 -2.4055 -0.3395
  233DMF     H4 3282   0.525   1.049   1.605 -0.7682 -0.4546  0.4635
  233DMF     H5 3283   0.586   0.886   1.578  0.1493  0.7002  2.2121
  233DMF     H6 3284   0.543   0.986   1.435  0.0927  2.4074 -0.1431
  233DMF     H7 3285   0.629   1.234   1.612 -0.5475  1.5917 -3.2474
  234DMF     C1 3286   2.192   1.839   2.235  0.3851 -0.4893  0.6139
  234DMF     N1 3287   2.221   1.857   2.377 -0.2834  0.1612  0.5002
  234DMF     C2 3288   2.149   1.955   2.457 -1.1059  0.2376 -0.1695
  234DMF     C3 3289   2.292   1.763   2.453 -0.3457 -0.3216 -0.3790
  234DMF     O1 3290   2.331   1.665   2.395  0.1624 -0.3601  0.4239
  234DMF     H1 3291   2.255   1.763   2.187 -0.9997 -2.6469  2.0946
  234DMF     H2 3292   2.209   1.935   2.185 -0.9672 -1.2542 -1.4029
  234DMF     H3 3293   2.088   1.802   2.230  0.3642 -0.4898  1.0413
  234DMF     H4 3294   2.176   2.051   2.411 -1.9364 -0.3145 -1.8622
  234DMF     H5 3295   2.172   1.949   2.564 -2.2055 -4.5497 -0.0944
  234DMF     H6 3296   2.041   1.936   2.453 -0.8500 -1.4202  0.4246
  234DMF     H7 3297   2.302   1.781   2.561  0.1935 -0.1720 -0.4554
  235DMF     C1 3298   2.923   0.599   0.354  0.6284 -0.0260  0.3118
  235DMF     N1 3299   2.803   0.512   0.366 -0.1287 -0.2299  0.2355
  235DMF     C2 3300   2.781   0.434   0.494  0.3694  0.3812 -0.2760
  235DMF     C3 3301   2.700   0.520   0.275 -0.7742 -0.7760  0.7208
  235DMF     O1 3302   2.711   0.582   0.171 -0.3589 -0.7597 -0.0598
  235DMF     H1 3303   2.892   0.704   0.356 -2.3631 -0.8070 -2.2583
  235DMF     H2 3304   2.982   0.575   0.265 -1.6707 -1.4722 -0.8661
  235DMF     H3 3305   2.988   0.583   0.441  2.2961 -1.4231 -1.1571
  235DMF     H4 3306   2.877   0.403   0.539 -0.8995 -1.5367  1.1772
  235DMF     H5 3307   2.727   0.339   0.484 -0.9128  0.9308  1.2169
  235DMF     H6 3308   2.735   0.502   0.567  0.4817  0.4933 -0.3093
  235DMF     H7 3309   2.611   0.458   0.296 -3.1835  2.5213  0.5320
  236DMF     C1 3310   2.671   2.925   2.851 -0.0049 -0.0455 -0.1973
  236DMF     N1 3311   2.744   3.037   2.789 -0.2311 -0.0395  0.6186
  236DMF     C2 3312   2.695   3.097   2.667  0.2912 -0.1942  0.0386
  236DMF     C3 3313   2.883   3.051   2.810  0.0133 -0.5504  0.6180
  236DMF     O1 3314   2.947   2.986   2.893  0.3545  0.2069 -0.4156
  236DMF     H1 3315   2.631   2.967   2.943  0.0279 -0.0884 -0.1627
  236DMF     H2 3316   2.741   2.845   2.878 -0.8707 -0.4032  1.0205
  236DMF     H3 3317   2.590   2.889   2.786 -0.7828  0.1382  0.6614
  236DMF     H4 3318   2.735   3.038   2.583  2.4424  0.5115  0.5260
  236DMF     H5 3319   2.729   3.201   2.662 -1.8778  0.4560 -1.7630
  236DMF     H6 3320   2.586   3.101   2.678  0.2672 -0.6876  0.0165
  236DMF     H7 3321   2.929   3.119   2.736  0.3542 -1.2699  0.1607
  237DMF     C1 3322   1.000   2.504   2.261 -0.5669  0.0204 -0.0298
  237DMF     N1 3323   1.079   2.389   2.270 -0.3590 -0.4344 -0.2717
  237DMF     C2 3324   1.223   2.391   2.229 -0.8869  0.0252 -0.4660
  237DMF     C3 3325   1.020   2.277   2.325  0.4578  0.1680 -0.0975
  237DMF     O1 3326   0.907   2.280   2.374  0.6183  0.4071 -0.1252
  237DMF     H1 3327   0.891   2.497   2.275 -0.7912 -2.4657 -2.4282
  237DMF     H2 3328   1.001   2.537   2.157 -0.5587  3.5958  1.0403
  237DMF     H3 3329   1.033   2.576   2.337  1.0346  0.1867 -0.8695
  237DMF     H4 3330   1.245   2.482   2.173 -0.7016  0.2743  0.0103
  237DMF     H5 3331   1.263   2.314   2.162  3.7516  2.2733 -0.4608
  237DMF     H6 3332   1.289   2.401   2.317 -2.0556  0.0182  0.4287
  237DMF     H7 3333   1.088   2.190   2.320 -0.3264 -0.5199  0.8341
  238DMF     C1 3334   1.799   0.150   0.179 -0.7747  0.5678  0.3724
  238DMF     N1 3335   1.749   0.115   0.038 -0.2833 -0.2417 -0.2051
  238DMF     C2 3336   1.657   0.209  -0.029 -0.2016 -0.0624 -0.1814
  238DMF     C3 3337   1.792  -0.002  -0.024  0.5688  0.3319 -0.1331
  238DMF     O1 3338   1.830  -0.101   0.032 -0.3767 -0.5806 -0.0580
  238DMF     H1 3339   1.906   0.169   0.164 -1.0519  2.1845  0.3791
  238DMF     H2 3340   1.772   0.059   0.234  0.5845 -0.4958 -0.6566
  238DMF     H3 3341   1.733   0.228   0.219  1.3367  3.2897 -1.2597
  238DMF     H4 3342   1.622   0.164  -0.123 -1.2081  0.3580 -0.0199
  238DMF     H5 3343   1.700   0.307  -0.053 -0.6926  0.4431  0.9803
  238DMF     H6 3344   1.568   0.232   0.030 -0.9756 -1.5927 -0.7342
  238DMF     H7 3345   1.793   0.009  -0.134 -2.7199  0.5525 -0.1859
  239DMF     C1 3346   1.609   0.713   3.049 -0.0697 -0.3085 -0.0631
  239DMF     N1 3347   1.459   0.704   3.056  0.1758 -0.2837 -0.6986
  239DMF     C2 3348   1.377   0.832   3.057  0.0352  0.4923  0.5255
  239DMF     C3 3349   1.391   0.586   3.047  0.1039 -0.4030 -0.3940
  239DMF     O1 3350   1.442   0.476   3.030 -0.0090 -0.2079  0.2512
  239DMF     H1 3351   1.647   0.748   2.953 -1.6679 -0.3459 -0.7146
  239DMF     H2 3352   1.653   0.620   3.088 -1.5895 -0.8089  0.4779
  239DMF     H3 3353   1.636   0.794   3.118 -0.0845  1.3693 -1.9972
  239DMF     H4 3354   1.271   0.815   3.079 -0.1830  0.5813 -0.4043
  239DMF     H5 3355   1.382   0.890   2.964  2.8802  0.9317  0.8789
  239DMF     H6 3356   1.412   0.903   3.132 -0.7088  0.7983  0.5816
  239DMF     H7 3357   1.282   0.600   3.060 -0.1480 -2.8338  0.3478
  240DMF     C1 3358   1.084   0.672   1.421 -0.1110 -0.2470  0.2986
  240DMF     N1 3359   1.196   0.705   1.508  0.0646  0.2552 -0.6149
  240DMF     C2 3360   1.232   0.853   1.514 -0.3635 -0.4307  0.1709
  240DMF     C3 3361   1.279   0.608   1.567 -0.0550 -0.3894 -0.0180
  240DMF     O1 3362   1.250   0.493   1.543  0.6704  0.0456 -0.2682
  240DMF     H1 3363   1.080   0.562   1.419 -2.3016 -0.1695 -0.4492
  240DMF     H2 3364   1.108   0.713   1.322  0.5277  0.4070  0.7158
  240DMF     H3 3365   0.993   0.716   1.461 -1.5262 -2.8304  0.0533
  240DMF     H4 3366   1.273   0.896   1.421 -0.9062 -2.0983 -0.8558
  240DMF     H5 3367   1.304   0.878   1.593  1.1582  0.4282 -1.4475
  240DMF     H6 3368   1.135   0.903   1.527 -0.5690 -0.5524 -0.8410
  240DMF     H7 3369   1.368   0.639   1.625  0.6288 -1.2838 -0.5744
  241DMF     C1 3370   2.825   2.596   0.406  0.2191 -0.2182 -0.0437
  241DMF     N1 3371   2.739   2.628   0.290 -0.2696 -0.9390  0.3638
  241DMF     C2 3372   2.598   2.628   0.302  0.5335  0.7486 -0.2928
  241DMF     C3 3373   2.805   2.617   0.169  0.3657 -0.3283  0.2370
  241DMF     O1 3374   2.907   2.557   0.149  0.0968 -0.7367  0.4128
  241DMF     H1 3375   2.871   2.685   0.449  1.0833 -0.3703 -0.6401
  241DMF     H2 3376   2.897   2.516   0.386 -0.6876 -1.6879  2.3550
  241DMF     H3 3377   2.762   2.550   0.483 -0.5756  1.4554  0.3199
  241DMF     H4 3378   2.553   2.619   0.202 -0.1162  0.1599  0.0429
  241DMF     H5 3379   2.563   2.715   0.360 -1.6889  0.8408 -1.7065
  241DMF     H6 3380   2.564   2.539   0.356 -0.7538 -0.3597 -2.7884
  241DMF     H7 3381   2.749   2.668   0.088  0.7899  1.2722  0.9181
  242DMF     C1 3382   1.856   2.302   0.712 -0.3506  0.3382 -0.0671
  242DMF     N1 3383   1.935   2.305   0.838  0.2586 -0.1103  0.1820
  242DMF     C2 3384   1.929   2.421   0.916 -0.0002 -0.0418  0.6448
  242DMF     C3 3385   2.011   2.194   0.872  0.1248  0.6258  0.1230
  242DMF     O1 3386   2.013   2.087   0.807  0.3721 -0.0538 -0.5914
  242DMF     H1 3387   1.796   2.210   0.714  0.1254  0.0274 -0.1538
  242DMF     H2 3388   1.922   2.310   0.625  2.4442  0.9950  2.0109
  242DMF     H3 3389   1.792   2.391   0.713 -0.6566  0.1193 -0.4635
  242DMF     H4 3390   1.830   2.419   0.963 -0.8314  3.9582 -0.7873
  242DMF     H5 3391   1.948   2.504   0.847 -1.5506  0.8148  1.2044
  242DMF     H6 3392   2.002   2.416   0.997  1.0920 -1.4477 -0.3954
  242DMF     H7 3393   2.055   2.199   0.973 -0.8216 -0.2791  0.5865
  243DMF     C1 3394   2.970   0.427   2.229  0.2333 -0.0267  0.3083
  243DMF     N1 3395   2.901   0.550   2.233  0.2845 -0.8172  0.1982
  243DMF     C2 3396   2.755   0.540   2.261  0.4460 -0.7237  0.1624
  243DMF     C3 3397   2.978   0.669   2.230  0.0248 -0.5358 -1.0443
  243DMF     O1 3398   3.094   0.670   2.223  0.3087 -0.5068 -0.4668
  243DMF     H1 3399   3.065   0.430   2.176  0.4579  1.6765  0.7590
  243DMF     H2 3400   2.917   0.347   2.175 -0.3195 -0.2638  1.1827
  243DMF     H3 3401   2.989   0.393   2.331 -2.6520 -1.7635  0.3424
  243DMF     H4 3402   2.697   0.607   2.197  1.2279  1.4812  1.7156
  243DMF     H5 3403   2.742   0.571   2.366  0.0593 -1.0839  0.2263
  243DMF     H6 3404   2.722   0.437   2.242 -2.7301  0.3542 -0.4772
  243DMF     H7 3405   2.918   0.755   2.265  0.7980 -0.0360 -0.9601
  244DMF     C1 3406   1.370   2.480   3.271  0.3086  0.1495  0.1705
  244DMF     N1 3407   1.310   2.530   3.399  0.1162  0.2246  0.2073
  244DMF     C2 3408   1.305   2.436   3.506  0.1745  0.1655  0.3058
  244DMF     C3 3409   1.249   2.654   3.414  0.1969  0.3950  0.5193
  244DMF     O1 3410   1.236   2.731   3.323 -0.2370 -0.1036  0.1838
  244DMF     H1 3411   1.322   2.510   3.177  0.8464 -0.0389 -0.1668
  244DMF     H2 3412   1.383   2.372   3.268 -0.0639  0.0437  1.7924
  244DMF     H3 3413   1.470   2.525   3.266  0.9990 -1.3507  0.2690
  244DMF     H4 3414   1.317   2.332   3.472 -1.7789  0.3957 -1.1537
  244DMF     H5 3415   1.212   2.443   3.564  0.6763 -0.0003  1.1397
  244DMF     H6 3416   1.392   2.459   3.570  0.0390  1.9719 -0.1274
  244DMF     H7 3417   1.208   2.667   3.516 -0.1048  3.8422  0.0183
  245DMF     C1 3418   0.818   1.230   0.566 -0.5046 -0.3809  0.1478
  245DMF     N1 3419   0.944   1.179   0.492  0.4408 -0.2090 -0.1272
  245DMF     C2 3420   0.965   1.232   0.353 -0.8494  0.3863 -0.3340
  245DMF     C3 3421   1.031   1.090   0.552  0.0575  0.7074 -0.0179
  245DMF     O1 3422   1.008   1.045   0.662  0.6515 -0.0670  0.1097
  245DMF     H1 3423   0.779   1.165   0.645 -0.5597  1.1405  1.3911
  245DMF     H2 3424   0.735   1.224   0.494 -0.2087 -0.1878 -0.2102
  245DMF     H3 3425   0.826   1.337   0.589 -2.3421 -0.2955  0.5075
  245DMF     H4 3426   1.069   1.235   0.319 -1.2024 -0.2652 -1.4964
  245DMF     H5 3427   0.934   1.337   0.351  1.4272  1.1651  1.7831
  245DMF     H6 3428   0.913   1.168   0.281 -1.1484 -0.2667  0.4434
  245DMF     H7 3429   1.118   1.063   0.490 -0.5948  0.5080 -0.8411
  246DMF     C1 3430   0.185   2.979   0.637 -0.2841  0.0578 -0.1465
  246DMF     N1 3431   0.071   2.887   0.620  0.2034  0.2294 -0.6347
  246DMF     C2 3432   0.094   2.737   0.636 -0.1016  0.2724  0.8417
  246DMF     C3 3433  -0.062   2.934   0.603 -0.3751  0.4047  0.5561
  246DMF     O1 3434  -0.089   3.050   0.627  0.3825 -0.1174  0.1476
  246DMF     H1 3435   0.176   3.036   0.730 -2.1571 -0.2130 -0.1482
  246DMF     H2 3436   0.196   3.062   0.566  0.1747  1.5429  1.6356
  246DMF     H3 3437   0.279   2.922   0.638 -0.5725 -0.4250  2.1551
  246DMF     H4 3438   0.087   2.690   0.538 -0.6912  1.7900  0.1447
  246DMF     H5 3439   0.030   2.680   0.705  1.2889 -4.0993 -1.3059
  246DMF     H6 3440   0.197   2.718   0.669 -0.1719  0.5717  1.2412
  246DMF     H7 3441  -0.139   2.860   0.574 -0.4359  1.0033 -0.8582
  247DMF     C1 3442   3.380   1.319   0.798  0.3082  0.0100  0.6270
  247DMF     N1 3443   3.455   1.410   0.700 -0.3426 -0.3224 -0.3555
  247DMF     C2 3444   3.541   1.349   0.599  0.2781  0.5948 -1.0642
  247DMF     C3 3445   3.434   1.545   0.699 -0.8189 -0.1580 -0.8306
  247DMF     O1 3446   3.349   1.595   0.771 -0.1321 -0.0418 -0.4136
  247DMF     H1 3447   3.449   1.243   0.836  1.1606  0.1409 -0.6381
  247DMF     H2 3448   3.293   1.271   0.751  1.2584 -1.0245 -0.0697
  247DMF     H3 3449   3.352   1.372   0.890  1.4034  0.9711  0.4167
  247DMF     H4 3450   3.543   1.397   0.501 -1.6180 -1.4038 -2.1172
  247DMF     H5 3451   3.494   1.251   0.585 -0.4746  0.5729  1.3367
  247DMF     H6 3452   3.636   1.336   0.652  0.1249 -2.4451 -1.4358
  247DMF     H7 3453   3.476   1.599   0.612 -0.9579  0.7390 -0.3387
  248DMF     C1 3454   0.425   2.369   1.564  0.0779  0.1780 -0.3381
  248DMF     N1 3455   0.453   2.222   1.560 -0.6273 -0.0705  0.5321
  248DMF     C2 3456   0.343   2.123   1.548 -0.1268 -0.4292 -0.2776
  248DMF     C3 3457   0.587   2.177   1.546 -0.0645 -0.3027  0.1774
  248DMF     O1 3458   0.678   2.253   1.528 -0.0648 -0.0995 -0.5857
  248DMF     H1 3459   0.340   2.393   1.628  0.7716  0.3611  0.5321
  248DMF     H2 3460   0.424   2.406   1.460 -0.9967  1.6265  0.1720
  248DMF     H3 3461   0.510   2.419   1.612 -1.1974  0.1022  2.0351
  248DMF     H4 3462   0.246   2.167   1.571 -0.3055  0.3755 -2.4674
  248DMF     H5 3463   0.359   2.036   1.614 -1.9181 -1.5348 -1.2671
  248DMF     H6 3464   0.328   2.084   1.447 -2.1983  0.0341 -0.1633
  248DMF     H7 3465   0.599   2.068   1.556 -0.3654 -0.2684  1.0515
  249DMF     C1 3466   1.096   1.372   2.847  0.1717  0.0709 -0.0497
  249DMF     N1 3467   0.976   1.415   2.917  0.1962 -0.2335 -0.7033
  249DMF     C2 3468   0.846   1.341   2.922 -0.0714  0.2401  0.3399
  249DMF     C3 3469   0.978   1.546   2.985  0.0079 -0.1758  0.1225
  249DMF     O1 3470   1.074   1.623   2.987  0.2537  0.2142 -0.0444
  249DMF     H1 3471   1.083   1.418   2.749  0.0577  0.7647  0.2866
  249DMF     H2 3472   1.093   1.263   2.838 -0.4552  0.0956 -0.1741
  249DMF     H3 3473   1.188   1.395   2.903  0.3056 -0.2126 -0.1520
  249DMF     H4 3474   0.778   1.403   2.982 -2.1739  0.6664 -2.3707
  249DMF     H5 3475   0.851   1.248   2.979 -0.4624 -0.6728 -1.0997
  249DMF     H6 3476   0.818   1.322   2.818 -1.2019 -0.0081  0.6922
  249DMF     H7 3477   0.885   1.568   3.041  1.2062  0.7957  1.7482
  250DMF     C1 3478   0.983   1.167   2.289  0.3869  0.1540 -0.1244
  250DMF     N1 3479   0.869   1.186   2.386  0.4353  0.2011 -0.5282
  250DMF     C2 3480   0.735   1.171   2.324 -0.1467  0.2257  0.1218
  250DMF     C3 3481   0.887   1.245   2.519  0.0431 -0.1030  0.0990
  250DMF     O1 3482   0.995   1.253   2.577 -0.0518  0.3634  0.1018
  250DMF     H1 3483   0.936   1.134   2.195 -2.4444 -0.4579  1.4529
  250DMF     H2 3484   1.056   1.095   2.328  0.5265 -0.7442 -1.9717
  250DMF     H3 3485   1.041   1.258   2.269  1.4505 -0.9996 -2.5269
  250DMF     H4 3486   0.713   1.246   2.247  0.1447 -1.4062 -1.5753
  250DMF     H5 3487   0.666   1.178   2.409  1.4104  2.5652  1.2697
  250DMF     H6 3488   0.726   1.074   2.274 -0.4694 -0.9533  2.3857
  250DMF     H7 3489   0.789   1.270   2.564 -1.2136  0.3806 -2.7913
  251DMF     C1 3490   2.291   0.144   0.560  0.3550  0.4094  0.0864
  251DMF     N1 3491   2.428   0.080   0.566  0.8457 -0.2786 -0.7964
  251DMF     C2 3492   2.444  -0.032   0.652  0.3868 -0.4626  0.1866
  251DMF     C3 3493   2.539   0.118   0.483 -0.0372  0.1917  0.2584
  251DMF     O1 3494   2.523   0.204   0.394  0.0276  0.1090  0.0768
  251DMF     H1 3495   2.295   0.254   0.563 -0.3926  0.4195  1.5225
  251DMF     H2 3496   2.230   0.106   0.643  0.3956 -0.4330 -0.2723
  251DMF     H3 3497   2.239   0.127   0.465  0.4680  0.5673 -0.0053
  251DMF     H4 3498   2.474   0.004   0.751  1.0051  1.5827 -0.7073
  251DMF     H5 3499   2.509  -0.109   0.608  0.9215 -0.3398  0.7659
  251DMF     H6 3500   2.348  -0.076   0.678 -0.0560 -0.3408 -1.1813
  251DMF     H7 3501   2.626   0.053   0.504 -0.9840 -1.0619  0.3346
  252DMF     C1 3502   1.855   0.215   2.538 -0.0019  0.0728  0.2589
  252DMF     N1 3503   1.922   0.308   2.635 -0.4925  0.0977 -0.6291
  252DMF     C2 3504   1.911   0.288   2.776 -0.3203  0.6622  0.0241
  252DMF     C3 3505   2.016   0.410   2.586  0.3395  1.0454 -0.4548
  252DMF     O1 3506   2.053   0.427   2.470  0.1419  0.3591 -0.2645
  252DMF     H1 3507   1.772   0.155   2.576  0.4320 -1.6509 -1.4402
  252DMF     H2 3508   1.925   0.156   2.478  0.1824  1.0456 -0.5055
  252DMF     H3 3509   1.805   0.275   2.461  1.0710  2.3914  1.3003
  252DMF     H4 3510   1.928   0.375   2.840  0.7232  0.0889  0.5348
  252DMF     H5 3511   1.985   0.213   2.809  0.1247  0.2746 -1.7912
  252DMF     H6 3512   1.822   0.235   2.813 -0.0695 -0.2414 -0.6364
  252DMF     H7 3513   2.048   0.468   2.675  0.1039  2.3259 -1.1797
  253DMF     C1 3514   2.961   3.265   2.292 -1.3181  0.5604 -0.0890
  253DMF     N1 3515   3.103   3.302   2.256 -0.2820 -0.0897  0.1802
  253DMF     C2 3516   3.193   3.191   2.240 -0.4463  0.3221 -0.8632
  253DMF     C3 3517   3.148   3.434   2.249  0.1285  0.0999 -0.7584
  253DMF     O1 3518   3.074   3.538   2.259 -0.5290  0.0623 -0.2236
  253DMF     H1 3519   2.951   3.237   2.398  0.3869 -1.7738 -0.4986
  253DMF     H2 3520   2.933   3.180   2.228  0.7885 -0.5221  0.3773
  253DMF     H3 3521   2.894   3.348   2.269 -0.3734  1.6594  1.0476
  253DMF     H4 3522   3.231   3.178   2.343  1.9558  0.0122 -1.7515
  253DMF     H5 3523   3.278   3.224   2.179  1.4486  0.2980  1.6824
  253DMF     H6 3524   3.136   3.109   2.195 -1.2700  0.9281 -0.9365
  253DMF     H7 3525   3.255   3.444   2.224  0.2640 -1.3786 -0.8229
  254DMF     C1 3526   2.331   1.081   1.561 -0.3893 -0.3053  0.6271
  254DMF     N1 3527   2.457   1.145   1.545  0.0485  0.2047 -0.6736
  254DMF     C2 3528   2.581   1.069   1.522  0.6715 -0.0701 -0.0210
  254DMF     C3 3529   2.461   1.286   1.561  0.2678 -0.4264 -0.2350
  254DMF     O1 3530   2.364   1.352   1.579  0.3758 -0.0043  0.2915
  254DMF     H1 3531   2.298   1.044   1.463 -0.9533  0.8033  0.3979
  254DMF     H2 3532   2.249   1.142   1.601 -1.0097 -0.2260 -0.7379
  254DMF     H3 3533   2.355   0.997   1.627 -0.1700 -0.0361  0.8853
  254DMF     H4 3534   2.564   0.995   1.444  2.0546  0.8926 -1.2814
  254DMF     H5 3535   2.613   1.010   1.608  1.3144  1.8784  1.1090
  254DMF     H6 3536   2.656   1.142   1.488 -0.4436  0.8562 -0.5464
  254DMF     H7 3537   2.558   1.337   1.546 -0.4182  1.1249  0.4967
  255DMF     C1 3538   0.352   1.629   0.918 -0.2837 -0.0298 -0.3249
  255DMF     N1 3539   0.456   1.520   0.914  0.5114 -0.4195  0.1395
  255DMF     C2 3540   0.500   1.459   1.033  0.1122 -0.6614 -0.0613
  255DMF     C3 3541   0.488   1.459   0.790  0.0703  0.3694 -0.4725
  255DMF     O1 3542   0.454   1.508   0.683 -0.0011  0.0395  0.5205
  255DMF     H1 3543   0.268   1.603   0.983 -0.8373 -0.4142 -1.2027
  255DMF     H2 3544   0.316   1.655   0.818  0.4116 -0.7853 -0.7767
  255DMF     H3 3545   0.406   1.720   0.948 -1.3906  1.0234 -1.4569
  255DMF     H4 3546   0.448   1.365   1.053 -0.0241 -0.2578  1.5352
  255DMF     H5 3547   0.492   1.523   1.122 -0.5648 -0.6139 -0.1555
  255DMF     H6 3548   0.602   1.419   1.019 -0.6467 -2.4862 -0.5603
  255DMF     H7 3549   0.539   1.362   0.803 -1.7871 -0.9460 -2.6615
  256DMF     C1 3550   2.539   2.518   3.575  0.3962  0.1427 -0.0243
  256DMF     N1 3551   2.526   2.384   3.515 -0.2073 -0.6023  0.1468
  256DMF     C2 3552   2.602   2.338   3.392 -0.2026 -0.5734 -0.5021
  256DMF     C3 3553   2.451   2.286   3.581 -0.5383  0.6652  0.0057
  256DMF     O1 3554   2.401   2.294   3.693 -0.6363 -0.1864  0.2431
  256DMF     H1 3555   2.463   2.581   3.527 -0.4773 -0.2982  0.7732
  256DMF     H2 3556   2.642   2.546   3.547  1.0522 -0.3373  1.8515
  256DMF     H3 3557   2.540   2.516   3.685 -1.4516 -0.6285 -0.0029
  256DMF     H4 3558   2.632   2.234   3.404 -0.7789 -0.6152  0.8131
  256DMF     H5 3559   2.695   2.396   3.397 -0.6623  0.1096  0.5144
  256DMF     H6 3560   2.546   2.370   3.303  0.3285  0.3012 -0.5296
  256DMF     H7 3561   2.438   2.194   3.523 -0.2822 -0.1198  1.1793
  257DMF     C1 3562   2.558   0.277   1.569  0.0944 -0.3988 -0.4810
  257DMF     N1 3563   2.577   0.171   1.465 -0.5456  0.7344  0.1990
  257DMF     C2 3564   2.681   0.064   1.489  0.5859  0.2243  0.4950
  257DMF     C3 3565   2.514   0.183   1.335 -0.3634  0.2334  0.3702
  257DMF     O1 3566   2.411   0.243   1.321 -0.0018 -0.8351  0.4286
  257DMF     H1 3567   2.648   0.296   1.628 -0.4771  1.2536 -0.1182
  257DMF     H2 3568   2.477   0.252   1.638  0.6701 -1.6082 -0.2302
  257DMF     H3 3569   2.541   0.372   1.517 -1.7092 -1.3151 -1.5928
  257DMF     H4 3570   2.654  -0.022   1.425 -1.0748  0.2909  1.0715
  257DMF     H5 3571   2.682   0.038   1.595 -1.8264  0.7865  0.6886
  257DMF     H6 3572   2.775   0.109   1.456  1.5412  0.5251  3.5027
  257DMF     H7 3573   2.558   0.121   1.256 -0.0450 -0.8124  1.3659
  258DMF     C1 3574   2.654   3.289   2.963  0.3581 -0.4495 -0.9480
  258DMF     N1 3575   2.576   3.375   2.876 -0.7354  0.2110 -0.2685
  258DMF     C2 3576   2.632   3.511   2.835  0.5030  0.1783 -0.2657
  258DMF     C3 3577   2.448   3.342   2.838  1.2719  0.3274 -1.2649
  258DMF     O1 3578   2.405   3.235   2.864 -0.0335  0.1617 -0.1390
  258DMF     H1 3579   2.608   3.193   2.988  0.6431 -0.4635 -0.4581
  258DMF     H2 3580   2.656   3.348   3.056  0.7917  0.9403 -1.8165
  258DMF     H3 3581   2.753   3.269   2.920  0.8635  4.0771 -2.2116
  258DMF     H4 3582   2.600   3.579   2.914 -3.1380  1.0795 -2.4063
  258DMF     H5 3583   2.583   3.544   2.743  0.0414  1.8048  0.5431
  258DMF     H6 3584   2.741   3.513   2.820  0.6324  0.7335  0.7550
  258DMF     H7 3585   2.401   3.416   2.771  0.6653 -0.8742 -2.1760
  259DMF     C1 3586   2.640   1.228   2.257  0.2235 -0.0935 -0.7522
  259DMF     N1 3587   2.551   1.348   2.249 -0.9135 -0.3253 -0.1489
  259DMF     C2 3588   2.616   1.469   2.297  0.4204  0.5112 -0.3793
  259DMF     C3 3589   2.416   1.341   2.233 -0.2521 -0.1177  0.1575
  259DMF     O1 3590   2.354   1.238   2.224 -0.3504 -0.1258  0.4028
  259DMF     H1 3591   2.602   1.158   2.332  0.6116  0.4067 -0.0841
  259DMF     H2 3592   2.736   1.261   2.297 -0.7043  0.7166  0.8700
  259DMF     H3 3593   2.655   1.184   2.158  0.0436 -1.1020 -0.3418
  259DMF     H4 3594   2.652   1.441   2.397 -0.8998  0.2803  0.0484
  259DMF     H5 3595   2.542   1.548   2.316 -0.6597 -0.9526  1.8465
  259DMF     H6 3596   2.697   1.506   2.234  0.6506  0.1091 -0.3207
  259DMF     H7 3597   2.359   1.435   2.238 -1.3141 -0.6194 -2.1435
  260DMF     C1 3598   1.124   1.849   0.691  0.1409 -0.1427 -0.3388
  260DMF     N1 3599   1.145   1.926   0.809  0.1452 -0.0771  0.1966
  260DMF     C2 3600   1.265   1.889   0.890 -0.0358  0.7293  0.0081
  260DMF     C3 3601   1.072   2.048   0.833 -0.5596 -0.0746  0.5502
  260DMF     O1 3602   0.979   2.076   0.760  0.7244  0.6872  0.2078
  260DMF     H1 3603   1.145   1.905   0.599 -0.2691 -1.2525 -1.1215
  260DMF     H2 3604   1.020   1.814   0.695  0.1521 -0.3089 -1.3796
  260DMF     H3 3605   1.186   1.759   0.684  0.6119  0.0203  1.4262
  260DMF     H4 3606   1.262   1.943   0.986  0.0644  2.3507 -0.8778
  260DMF     H5 3607   1.357   1.902   0.832  0.0120  1.0588  0.1569
  260DMF     H6 3608   1.253   1.787   0.928  1.4476  0.2128 -0.8555
  260DMF     H7 3609   1.108   2.100   0.923 -1.2630 -0.7183  1.2078
  261DMF     C1 3610   0.815   1.940   3.288  0.6192 -0.2826  0.2296
  261DMF     N1 3611   0.731   1.867   3.384 -0.2531  0.3049 -0.7293
  261DMF     C2 3612   0.726   1.892   3.530  0.0878 -0.3404 -0.4102
  261DMF     C3 3613   0.648   1.768   3.333 -0.0358 -0.1869  0.2648
  261DMF     O1 3614   0.646   1.742   3.216 -0.0201  0.5495  0.0296
  261DMF     H1 3615   0.862   1.880   3.210 -1.0996 -0.3578 -0.7604
  261DMF     H2 3616   0.895   1.986   3.349  1.2217 -2.1289  0.8509
  261DMF     H3 3617   0.760   2.029   3.255  0.5294 -0.9851 -1.5232
  261DMF     H4 3618   0.634   1.946   3.554  0.3109  0.6726 -1.7930
  261DMF     H5 3619   0.818   1.941   3.566  0.1503 -2.1538  2.0647
  261DMF     H6 3620   0.730   1.800   3.589  2.6548 -0.3035 -0.4687
  261DMF     H7 3621   0.591   1.727   3.419 -2.0550  0.4944 -0.7157
  262DMF     C1 3622   0.441   0.459   0.514 -0.2965  0.9534 -0.2777
  262DMF     N1 3623   0.404   0.501   0.379  0.5425  0.1685  0.1697
  262DMF     C2 3624   0.431   0.641   0.342 -0.2569  0.3328  0.2060
  262DMF     C3 3625   0.378   0.411   0.279 -0.1928 -0.2679 -0.4716
  262DMF     O1 3626   0.374   0.286   0.300  0.5548  0.2659  0.2457
  262DMF     H1 3627   0.363   0.469   0.591 -0.0674  0.5835  0.0076
  262DMF     H2 3628   0.537   0.505   0.542 -0.9435  1.7388  0.6620
  262DMF     H3 3629   0.470   0.353   0.512 -2.1610  0.4179  0.4245
  262DMF     H4 3630   0.331   0.683   0.326 -1.2254 -1.4803  1.4062
  262DMF     H5 3631   0.485   0.662   0.249  1.0197 -1.6670  0.4557
  262DMF     H6 3632   0.474   0.700   0.425  1.0866 -0.2428 -0.0681
  262DMF     H7 3633   0.368   0.463   0.182 -1.1555  1.2340  0.4041
  263DMF     C1 3634   0.315   1.693   2.798  0.3606  0.1114  0.4096
  263DMF     N1 3635   0.303   1.786   2.909  0.0837  0.3762 -1.2387
  263DMF     C2 3636   0.329   1.733   3.036  0.8853 -0.2786 -0.1616
  263DMF     C3 3637   0.271   1.922   2.894  0.4733 -0.1802  0.3251
  263DMF     O1 3638   0.250   1.973   2.787 -0.4660 -0.3483  0.2545
  263DMF     H1 3639   0.327   1.588   2.829  2.1549  0.3274  0.4869
  263DMF     H2 3640   0.388   1.722   2.722 -0.3011 -2.0166 -1.0772
  263DMF     H3 3641   0.215   1.679   2.757  0.4994  0.5345 -0.0738
  263DMF     H4 3642   0.374   1.802   3.109 -1.9786 -1.3414  2.7353
  263DMF     H5 3643   0.401   1.655   3.010 -0.8131 -1.8398 -0.2232
  263DMF     H6 3644   0.241   1.689   3.084  0.9246  0.8716  1.0026
  263DMF     H7 3645   0.264   1.980   2.988  1.8185  0.8619 -0.1997
  264DMF     C1 3646   3.080   1.846   3.533  0.0062  0.5321  0.2099
  264DMF     N1 3647   3.077   1.910   3.660  0.0873 -0.0641  0.4384
  264DMF     C2 3648   3.151   2.038   3.668 -0.0374 -0.0342  0.5628
  264DMF     C3 3649   3.000   1.859   3.763  0.8188  0.8019  0.2376
  264DMF     O1 3650   2.938   1.754   3.759 -0.6815 -0.1260  0.0343
  264DMF     H1 3651   3.046   1.919   3.458  1.8957  1.6274  0.4138
  264DMF     H2 3652   3.030   1.748   3.531  2.1639 -0.5946  0.6278
  264DMF     H3 3653   3.182   1.823   3.500  0.0275  1.4315 -0.3537
  264DMF     H4 3654   3.251   2.029   3.625 -1.7227  0.9233 -3.7279
  264DMF     H5 3655   3.159   2.063   3.775  0.7533  0.2782  0.4286
  264DMF     H6 3656   3.096   2.125   3.631  1.6526  0.5141 -0.6878
  264DMF     H7 3657   3.005   1.915   3.858  0.8765  0.3317  0.5170
  265DMF     C1 3658   3.196   2.094   0.559 -0.3641  0.0421  0.5180
  265DMF     N1 3659   3.127   2.114   0.430  0.5790 -0.3348 -0.2462
  265DMF     C2 3660   2.998   2.189   0.421  0.2079  0.2979 -0.3403
  265DMF     C3 3661   3.185   2.058   0.316  0.3048  0.1937 -0.1642
  265DMF     O1 3662   3.292   1.993   0.313  0.4987  0.4016  0.5954
  265DMF     H1 3663   3.271   2.175   0.563 -1.0293  0.6536  0.6805
  265DMF     H2 3664   3.242   1.997   0.580 -0.6520  0.2034  1.9526
  265DMF     H3 3665   3.116   2.105   0.633 -0.9368  0.4939 -0.1613
  265DMF     H4 3666   2.915   2.129   0.460  1.6312  0.5946  3.4120
  265DMF     H5 3667   2.979   2.225   0.319  2.2475  0.7826 -0.5805
  265DMF     H6 3668   3.008   2.279   0.483  0.8472  0.5065 -0.7399
  265DMF     H7 3669   3.140   2.110   0.229  2.0196  0.5916 -0.8377
  266DMF     C1 3670   2.854   3.311   0.592 -0.4923  0.2932  0.1922
  266DMF     N1 3671   2.924   3.436   0.573 -0.1468 -0.2366  0.1350
  266DMF     C2 3672   3.054   3.429   0.503  0.3337  0.1510 -0.4343
  266DMF     C3 3673   2.873   3.555   0.626 -0.3811  0.2368 -0.9276
  266DMF     O1 3674   2.780   3.566   0.707 -0.4534 -0.4842 -0.0201
  266DMF     H1 3675   2.754   3.331   0.633  0.1415 -0.7090  2.3319
  266DMF     H2 3676   2.909   3.245   0.660 -0.6219  0.4824  0.4809
  266DMF     H3 3677   2.843   3.277   0.488 -1.6797 -0.9028  0.6787
  266DMF     H4 3678   3.102   3.523   0.473 -0.1035 -0.0884 -1.9211
  266DMF     H5 3679   3.042   3.379   0.406 -0.9170  0.2375 -0.3263
  266DMF     H6 3680   3.129   3.369   0.557 -0.5426 -0.6937 -0.1458
  266DMF     H7 3681   2.937   3.638   0.589  0.7134 -0.8228 -1.4258
  267DMF     C1 3682   2.022   0.198   1.024  0.0084  0.0464 -0.1010
  267DMF     N1 3683   1.970   0.058   1.027  0.4519 -0.1672 -0.4385
  267DMF     C2 3684   1.850   0.031   1.101  0.4658  0.5268  0.2869
  267DMF     C3 3685   2.018  -0.032   0.926 -0.4968  0.3379 -0.0436
  267DMF     O1 3686   2.117  -0.007   0.857 -0.4125  0.3130 -0.3162
  267DMF     H1 3687   1.990   0.235   0.926  0.9731  3.5433  0.8377
  267DMF     H2 3688   2.131   0.189   1.036  0.1993  3.3614  1.0354
  267DMF     H3 3689   1.975   0.260   1.102 -2.5009 -1.8544 -0.0405
  267DMF     H4 3690   1.830  -0.077   1.097 -2.0425  0.9525  0.2873
  267DMF     H5 3691   1.770   0.094   1.059  2.2666  1.4246 -1.8816
  267DMF     H6 3692   1.850   0.072   1.202 -1.7358  0.5369  0.3136
  267DMF     H7 3693   1.959  -0.126   0.917 -0.4626  0.3706 -0.5866
  268DMF     C1 3694   2.739   2.084   1.573 -0.1973  0.1553 -0.1416
  268DMF     N1 3695   2.836   2.166   1.485 -0.3459  0.1171 -0.4291
  268DMF     C2 3696   2.910   2.274   1.543 -0.2496 -0.1559  0.0695
  268DMF     C3 3697   2.864   2.127   1.350  0.4384 -0.3347  0.2164
  268DMF     O1 3698   2.807   2.035   1.297 -0.7725  0.5803 -0.5523
  268DMF     H1 3699   2.803   2.008   1.620  3.1756  2.7418 -0.3145
  268DMF     H2 3700   2.653   2.050   1.514 -0.2130 -0.5064  0.2541
  268DMF     H3 3701   2.693   2.149   1.648  0.4416 -0.9131  1.2053
  268DMF     H4 3702   2.964   2.346   1.481 -0.8594  1.3967  1.2963
  268DMF     H5 3703   2.989   2.228   1.603  0.9328  2.3516  0.5141
  268DMF     H6 3704   2.844   2.339   1.602 -0.2730 -2.3044  2.5129
  268DMF     H7 3705   2.938   2.192   1.300 -0.1315  0.6032  0.5785
  269DMF     C1 3706   2.330   0.225   2.938 -0.3777  0.1661  0.2026
  269DMF     N1 3707   2.215   0.264   3.014  0.2230  0.0805 -0.0306
  269DMF     C2 3708   2.142   0.168   3.095 -0.0953 -0.0985 -0.0114
  269DMF     C3 3709   2.150   0.384   2.967 -0.2335  0.4818 -0.3879
  269DMF     O1 3710   2.183   0.453   2.876 -0.2210 -0.3772  0.1681
  269DMF     H1 3711   2.371   0.132   2.978 -2.8442 -1.4164 -0.8426
  269DMF     H2 3712   2.402   0.306   2.957 -1.2711  0.8936  0.4872
  269DMF     H3 3713   2.312   0.212   2.830 -0.3173  0.6432  0.1344
  269DMF     H4 3714   2.210   0.090   3.130 -0.3403 -1.0335 -1.5891
  269DMF     H5 3715   2.054   0.134   3.039 -0.3101  0.1319  0.1837
  269DMF     H6 3716   2.115   0.224   3.186 -1.0725 -2.0425  0.9376
  269DMF     H7 3717   2.052   0.398   3.017 -0.9420 -2.2885 -0.9013
  270DMF     C1 3718   0.830   3.093   2.813  0.3446 -0.4538  0.5716
  270DMF     N1 3719   0.912   3.176   2.721  0.1460  0.2168 -0.2321
  270DMF     C2 3720   0.838   3.221   2.600 -0.0028  0.5314  0.3067
  270DMF     C3 3721   1.046   3.174   2.717 -0.5068 -0.0734 -0.5600
  270DMF     O1 3722   1.113   3.103   2.790  0.3307  0.2951  0.4111
  270DMF     H1 3723   0.900   3.064   2.892  1.7195  0.6903 -0.1881
  270DMF     H2 3724   0.788   3.004   2.765  2.3202 -0.9649 -0.2536
  270DMF     H3 3725   0.748   3.151   2.855  0.0893 -1.0329  0.8749
  270DMF     H4 3726   0.734   3.245   2.627 -0.0829  0.0258  0.4553
  270DMF     H5 3727   0.833   3.139   2.527 -0.7620 -0.1676  1.1294
  270DMF     H6 3728   0.890   3.306   2.554 -0.7147 -0.0813 -1.7161
  270DMF     H7 3729   1.081   3.233   2.631 -1.4858  1.5737  0.1466
  271DMF     C1 3730   0.839   0.920   0.260 -0.1372  0.3187  0.5292
  271DMF     N1 3731   0.823   0.943   0.115 -0.0790 -0.1361 -0.1189
  271DMF     C2 3732   0.941   0.975   0.047  0.4401  0.6855  0.2852
  271DMF     C3 3733   0.706   0.901   0.054 -0.2315  0.0966  0.8202
  271DMF     O1 3734   0.611   0.853   0.115  0.4450 -0.1837  0.2142
  271DMF     H1 3735   0.806   0.816   0.274 -0.2950 -0.0545 -2.3527
  271DMF     H2 3736   0.784   0.988   0.327 -0.4447  0.7721 -0.1766
  271DMF     H3 3737   0.943   0.936   0.291  0.6060  0.3076 -1.8652
  271DMF     H4 3738   0.957   1.081   0.025 -1.0723  0.9569  0.4162
  271DMF     H5 3739   0.946   0.921  -0.048  0.6756 -1.5841  1.5345
  271DMF     H6 3740   1.026   0.945   0.110  1.1436  0.5656 -0.7022
  271DMF     H7 3741   0.724   0.916  -0.054  0.4829  1.6578  1.1418
  272DMF     C1 3742   3.310   0.620   0.687  0.6242 -0.9570 -0.3799
  272DMF     N1 3743   3.350   0.479   0.696  0.2859  0.0149  0.3922
  272DMF     C2 3744   3.473   0.447   0.763 -0.3275 -0.0609  0.4580
  272DMF     C3 3745   3.249   0.389   0.668  0.2511  0.5499 -0.7314
  272DMF     O1 3746   3.140   0.417   0.621  1.1302 -0.8127  0.3385
  272DMF     H1 3747   3.215   0.644   0.737  1.0570 -1.3278  0.6381
  272DMF     H2 3748   3.331   0.663   0.588 -0.7797  1.1743  0.2092
  272DMF     H3 3749   3.380   0.677   0.750  0.7413  0.0566 -1.4027
  272DMF     H4 3750   3.459   0.457   0.871  0.2169  0.7499  0.4642
  272DMF     H5 3751   3.553   0.513   0.725 -1.0717 -0.1744 -1.3280
  272DMF     H6 3752   3.506   0.345   0.741  0.1628  0.1085  0.3892
  272DMF     H7 3753   3.271   0.287   0.705 -2.3869  0.9065  2.0876
  273DMF     C1 3754   2.426   2.290   2.248 -0.5554 -0.6976 -0.0371
  273DMF     N1 3755   2.368   2.291   2.379 -0.2589  0.3245  0.4252
  273DMF     C2 3756   2.415   2.181   2.470 -0.7023  0.0824  0.1026
  273DMF     C3 3757   2.300   2.401   2.437 -0.7464  0.2892 -0.3291
  273DMF     O1 3758   2.304   2.508   2.385 -0.7520 -0.1263  0.1863
  273DMF     H1 3759   2.535   2.289   2.258 -0.6904  1.1757  2.1347
  273DMF     H2 3760   2.385   2.374   2.191 -1.6210 -1.6385 -0.6763
  273DMF     H3 3761   2.386   2.203   2.195 -0.8336 -0.8348  0.3892
  273DMF     H4 3762   2.518   2.207   2.497 -1.0183  2.3697 -0.7667
  273DMF     H5 3763   2.398   2.082   2.427  0.5183  0.0904 -0.4154
  273DMF     H6 3764   2.366   2.199   2.567 -1.2171  3.6008 -0.7250
  273DMF     H7 3765   2.252   2.391   2.536  0.6512 -0.2614  0.2964
  274DMF     C1 3766   0.851   2.536   1.485 -0.5746 -0.1535  1.0928
  274DMF     N1 3767   0.917   2.659   1.545 -0.6186  0.2774 -0.2044
  274DMF     C2 3768   1.068   2.669   1.549  0.5832  0.7443  0.3057
  274DMF     C3 3769   0.848   2.776   1.578  0.4940  0.5400  0.5164
  274DMF     O1 3770   0.730   2.782   1.596  0.0278  0.0411 -0.9681
  274DMF     H1 3771   0.916   2.486   1.411 -2.6882 -0.4906 -0.5754
  274DMF     H2 3772   0.756   2.565   1.438  1.3196  2.3375 -1.3547
  274DMF     H3 3773   0.836   2.473   1.573 -2.9820  1.2611  1.7188
  274DMF     H4 3774   1.105   2.675   1.447  1.5650  0.8460  0.6678
  274DMF     H5 3775   1.103   2.583   1.607  0.1939 -1.6355 -2.8713
  274DMF     H6 3776   1.094   2.765   1.596 -1.0614  1.7186 -0.7006
  274DMF     H7 3777   0.919   2.860   1.589 -0.0339  0.6180  3.5314
  275DMF     C1 3778   1.096   1.664   0.416 -0.4985  0.0926  0.8082
  275DMF     N1 3779   1.172   1.578   0.500  0.1010 -0.0492 -0.1440
  275DMF     C2 3780   1.101   1.484   0.582 -0.1928  0.1050  0.2505
  275DMF     C3 3781   1.317   1.566   0.498 -0.1604 -0.7939 -0.0156
  275DMF     O1 3782   1.383   1.639   0.426 -0.1687 -0.0589 -0.3461
  275DMF     H1 3783   0.999   1.621   0.388  0.7155 -2.1678 -0.0058
  275DMF     H2 3784   1.157   1.653   0.325 -1.3554  1.0613  0.0962
  275DMF     H3 3785   1.091   1.771   0.441 -1.2246  0.4623 -0.8464
  275DMF     H4 3786   1.151   1.386   0.577  0.9194  0.6370  0.5580
  275DMF     H5 3787   1.004   1.452   0.544  0.1092  0.3827 -0.7788
  275DMF     H6 3788   1.095   1.517   0.686 -0.5245 -1.2903  0.6895
  275DMF     H7 3789   1.349   1.476   0.553 -0.2460 -0.8321 -0.0298
  276DMF     C1 3790   1.887   2.622   1.193  0.2645 -0.5978  0.0396
  276DMF     N1 3791   1.811   2.729   1.122 -0.5920  0.3982 -0.3859
  276DMF     C2 3792   1.877   2.807   1.022 -0.0475  0.5551 -0.7467
  276DMF     C3 3793   1.682   2.765   1.168 -0.2495 -0.4677 -0.1453
  276DMF     O1 3794   1.627   2.698   1.258 -0.1111 -0.2996  0.2236
  276DMF     H1 3795   1.922   2.669   1.286  1.5979  0.6562 -1.0672
  276DMF     H2 3796   1.980   2.605   1.137  0.5912  0.2276  0.3178
  276DMF     H3 3797   1.820   2.538   1.214 -1.9343  1.1480  0.1730
  276DMF     H4 3798   1.971   2.837   1.069  0.9529  1.1298 -3.0726
  276DMF     H5 3799   1.828   2.894   0.976 -0.6403  0.0738 -1.0335
  276DMF     H6 3800   1.910   2.735   0.947 -0.0676 -0.0189 -0.2083
  276DMF     H7 3801   1.646   2.861   1.127  2.3119  0.5376 -0.2054
  277DMF     C1 3802   1.850   1.524   0.164 -0.4901  0.4943 -0.0786
  277DMF     N1 3803   1.725   1.607   0.140 -0.0109 -0.5816 -0.0119
  277DMF     C2 3804   1.675   1.687   0.248  0.2773 -0.0869 -0.1581
  277DMF     C3 3805   1.664   1.616   0.014 -0.0450  0.1672  0.9709
  277DMF     O1 3806   1.715   1.571  -0.091 -0.4128  0.1000  0.3675
  277DMF     H1 3807   1.940   1.580   0.137  0.5795 -0.9241  0.4882
  277DMF     H2 3808   1.860   1.442   0.091 -2.2925 -0.5087  0.7655
  277DMF     H3 3809   1.852   1.477   0.263  0.0272  1.0410  0.1692
  277DMF     H4 3810   1.716   1.650   0.343  1.1899  0.4643 -0.3297
  277DMF     H5 3811   1.568   1.672   0.263  0.1872  1.0927  0.4102
  277DMF     H6 3812   1.698   1.794   0.239 -3.8007  0.8350 -0.5626
  277DMF     H7 3813   1.565   1.666   0.014 -0.1186  0.0239  0.6567
  278DMF     C1 3814   3.219   0.113   2.847  0.0303  0.0421  0.0651
  278DMF     N1 3815   3.195   0.113   2.699  0.0807 -0.0883  0.1656
  278DMF     C2 3816   3.213   0.237   2.641 -0.6383  0.3544  0.6493
  278DMF     C3 3817   3.102   0.029   2.637  0.5876  0.2054 -0.0621
  278DMF     O1 3818   3.068  -0.075   2.691 -0.2288 -0.2709  0.1255
  278DMF     H1 3819   3.124   0.126   2.901  0.8077  1.6041  1.0657
  278DMF     H2 3820   3.289   0.193   2.872 -1.6191  1.3527  0.6220
  278DMF     H3 3821   3.259   0.017   2.879  0.0002  0.2215  0.6422
  278DMF     H4 3822   3.117   0.289   2.643 -0.7367  0.1543  1.3881
  278DMF     H5 3823   3.238   0.234   2.534 -1.2923 -0.7840  0.5279
  278DMF     H6 3824   3.277   0.302   2.703  1.1979 -1.1437  0.3852
  278DMF     H7 3825   3.062   0.069   2.542 -0.7101 -1.4629 -0.2285
  279DMF     C1 3826   2.470   2.013   3.067 -0.0766 -0.5035 -0.5498
  279DMF     N1 3827   2.421   1.896   3.137 -0.1743  0.2253  0.1768
  279DMF     C2 3828   2.485   1.771   3.112 -0.2452  0.0407 -0.2876
  279DMF     C3 3829   2.353   1.908   3.253  0.9376 -0.2827  0.6592
  279DMF     O1 3830   2.328   2.014   3.311 -0.6666  0.0061 -0.4881
  279DMF     H1 3831   2.387   2.080   3.041  0.5234  0.3275 -0.3469
  279DMF     H2 3832   2.534   1.985   2.982  0.9667  1.7473 -0.5567
  279DMF     H3 3833   2.523   2.074   3.142  0.9405 -1.1287 -0.7435
  279DMF     H4 3834   2.466   1.698   3.192 -0.7012  0.3703 -0.0883
  279DMF     H5 3835   2.594   1.773   3.100  0.0440 -1.6283  1.7876
  279DMF     H6 3836   2.433   1.735   3.023 -3.0202  2.1578  0.3648
  279DMF     H7 3837   2.323   1.811   3.298  0.8874 -0.7712 -0.4104
  280DMF     C1 3838   2.371   3.024   0.725  0.0955  0.6812  0.6257
  280DMF     N1 3839   2.294   2.952   0.624 -0.1007 -0.6107 -0.4138
  280DMF     C2 3840   2.354   2.826   0.562  0.5685  0.4485  0.0239
  280DMF     C3 3841   2.169   3.007   0.588 -0.2902 -0.0417  0.0701
  280DMF     O1 3842   2.125   3.110   0.630  0.1460  0.5191  0.2157
  280DMF     H1 3843   2.469   2.976   0.740 -0.5133 -1.4900 -2.0386
  280DMF     H2 3844   2.323   3.017   0.823  0.1434  0.1557  0.6120
  280DMF     H3 3845   2.382   3.132   0.709  1.3152  0.6444  1.1602
  280DMF     H4 3846   2.312   2.813   0.461  2.4330 -2.3586 -0.4411
  280DMF     H5 3847   2.327   2.746   0.633 -0.4017 -0.0106 -0.8463
  280DMF     H6 3848   2.462   2.840   0.557 -0.0632  5.8321 -1.9705
  280DMF     H7 3849   2.118   2.948   0.509 -1.2496  0.1696  0.5265
  281DMF     C1 3850   1.119   0.737   2.819 -0.7639  0.0852  0.2264
  281DMF     N1 3851   1.005   0.815   2.863  0.7093  0.2601 -0.2794
  281DMF     C2 3852   0.981   0.960   2.821  0.4944  1.0037  0.0522
  281DMF     C3 3853   0.927   0.762   2.969  0.6649  0.0483  0.4072
  281DMF     O1 3854   0.924   0.644   2.999  0.1327  0.2751 -0.6411
  281DMF     H1 3855   1.133   0.742   2.711  0.0811  2.4003  0.4086
  281DMF     H2 3856   1.110   0.637   2.863 -1.0523  0.3407  0.7610
  281DMF     H3 3857   1.211   0.783   2.857 -0.4158 -1.9272  1.9286
  281DMF     H4 3858   1.017   0.968   2.718  0.1671  0.0121 -0.1439
  281DMF     H5 3859   1.031   1.023   2.895 -1.3011  0.2056  2.0011
  281DMF     H6 3860   0.872   0.978   2.823  0.8629  3.1826  1.3363
  281DMF     H7 3861   0.861   0.840   3.011  0.3126 -0.3328  0.5713
  282DMF     C1 3862   2.456   0.386   0.736  0.2810  0.5010  0.3296
  282DMF     N1 3863   2.440   0.383   0.888 -0.3040  0.0140 -0.1615
  282DMF     C2 3864   2.479   0.262   0.960  0.0669 -0.2865  0.1753
  282DMF     C3 3865   2.398   0.495   0.964  0.0627  0.4874 -0.8404
  282DMF     O1 3866   2.360   0.593   0.911 -0.5629 -0.1704  0.5140
  282DMF     H1 3867   2.525   0.308   0.703 -0.0390  0.2673  0.2081
  282DMF     H2 3868   2.517   0.473   0.709  1.0484 -0.4625 -1.1352
  282DMF     H3 3869   2.357   0.392   0.688  0.6773 -0.1393 -0.5868
  282DMF     H4 3870   2.382   0.210   0.963  0.6551 -1.4007  0.2038
  282DMF     H5 3871   2.520   0.284   1.059  0.0621  0.8637 -0.0742
  282DMF     H6 3872   2.546   0.195   0.905  2.4304  1.3417  0.9878
  282DMF     H7 3873   2.399   0.472   1.073  0.1724 -1.3497 -1.2100
  283DMF     C1 3874   1.078   0.410   1.014 -0.5894  0.3601 -0.3024
  283DMF     N1 3875   1.027   0.315   1.117 -0.8855  0.0570 -0.1898
  283DMF     C2 3876   1.092   0.302   1.247 -1.0285  0.8429 -0.8835
  283DMF     C3 3877   0.913   0.231   1.086 -0.1697 -0.2573  0.2722
  283DMF     O1 3878   0.840   0.242   0.986 -0.3213 -0.1013  0.0708
  283DMF     H1 3879   1.087   0.355   0.920 -2.7083  0.1502 -0.4122
  283DMF     H2 3880   1.168   0.453   1.058 -0.2610  0.6633 -1.2670
  283DMF     H3 3881   1.010   0.493   0.987  1.8021  3.1957  2.0123
  283DMF     H4 3882   1.023   0.260   1.322  0.0539  1.6420  0.5903
  283DMF     H5 3883   1.143   0.392   1.284 -2.7539  1.0563  1.0744
  283DMF     H6 3884   1.170   0.228   1.227 -0.6834  1.3036 -1.2260
  283DMF     H7 3885   0.896   0.149   1.158  1.2822  0.6275  1.6483
  284DMF     C1 3886   2.082   2.560   2.718 -0.2890  0.5474 -0.5202
  284DMF     N1 3887   2.123   2.678   2.640  0.0442  0.3001  0.5056
  284DMF     C2 3888   2.270   2.706   2.623  0.1360  0.9828 -0.7206
  284DMF     C3 3889   2.039   2.761   2.572  0.3107 -0.7864  0.3988
  284DMF     O1 3890   1.921   2.751   2.577 -0.3505 -0.4461  0.5115
  284DMF     H1 3891   1.975   2.553   2.743 -0.5422 -2.9269 -2.3631
  284DMF     H2 3892   2.133   2.579   2.814  0.8962 -0.6699 -0.8969
  284DMF     H3 3893   2.128   2.467   2.683  0.0350  0.3219  0.4803
  284DMF     H4 3894   2.311   2.785   2.687  1.2815 -1.8866  2.2062
  284DMF     H5 3895   2.298   2.720   2.518  2.0530 -0.0479 -0.3605
  284DMF     H6 3896   2.332   2.621   2.654  1.3763  2.3953  0.7187
  284DMF     H7 3897   2.093   2.843   2.521 -3.6188  1.0786 -0.9996
  285DMF     C1 3898   0.673   1.742   2.328  0.3218  0.0877 -1.0079
  285DMF     N1 3899   0.811   1.710   2.293 -0.3819  0.9968 -0.2156
  285DMF     C2 3900   0.896   1.823   2.280 -0.5470 -0.2535  0.3151
  285DMF     C3 3901   0.865   1.578   2.300  0.5622 -0.0014 -0.2962
  285DMF     O1 3902   0.806   1.478   2.324 -0.0742 -0.7006 -0.3458
  285DMF     H1 3903   0.604   1.759   2.245  0.0108 -1.2558 -1.0429
  285DMF     H2 3904   0.661   1.818   2.406  0.6129 -0.3953 -0.4854
  285DMF     H3 3905   0.629   1.649   2.366  0.8292 -0.6239 -2.1533
  285DMF     H4 3906   0.850   1.922   2.291  1.1070  0.4849  0.7681
  285DMF     H5 3907   0.942   1.824   2.181  0.0210  0.9285  0.5817
  285DMF     H6 3908   0.970   1.819   2.360 -0.8307 -2.4035  0.5104
  285DMF     H7 3909   0.975   1.578   2.293  0.5611  0.5323 -0.3147
  286DMF     C1 3910   1.414   2.061   0.137 -0.3852  0.0006  0.6431
  286DMF     N1 3911   1.389   2.071  -0.009  0.2219  0.3835  0.6851
  286DMF     C2 3912   1.304   2.170  -0.062  0.0504  0.3067 -0.5191
  286DMF     C3 3913   1.476   2.007  -0.098 -0.1618 -0.4902 -0.0324
  286DMF     O1 3914   1.565   1.932  -0.053 -0.6155  0.6714  0.3205
  286DMF     H1 3915   1.510   2.112   0.157 -0.8145  2.1982 -2.5256
  286DMF     H2 3916   1.424   1.957   0.170  2.5685 -0.0369 -0.2074
  286DMF     H3 3917   1.331   2.097   0.199  0.7372  2.5636  0.7330
  286DMF     H4 3918   1.204   2.149  -0.021 -0.1727 -0.2852 -1.3401
  286DMF     H5 3919   1.308   2.169  -0.172  0.4636  1.1190 -0.5137
  286DMF     H6 3920   1.336   2.265  -0.018 -0.7794  0.0588  0.6441
  286DMF     H7 3921   1.466   2.038  -0.204  2.2736  0.5766  0.0295
  287DMF     C1 3922   0.337   2.261   0.295 -0.4405  0.0973 -0.3539
  287DMF     N1 3923   0.219   2.180   0.260 -0.5798  0.1917 -1.3700
  287DMF     C2 3924   0.187   2.089   0.366 -0.3266  0.0064  0.0302
  287DMF     C3 3925   0.162   2.177   0.133 -0.0040  0.6522 -0.5434
  287DMF     O1 3926   0.206   2.235   0.035  0.8187  0.0644  0.4508
  287DMF     H1 3927   0.315   2.331   0.376 -0.6422  0.1734 -0.4756
  287DMF     H2 3928   0.371   2.323   0.211 -2.2364  1.4871 -0.0698
  287DMF     H3 3929   0.424   2.197   0.318 -0.1008  0.6673 -0.0588
  287DMF     H4 3930   0.266   2.079   0.442 -0.4140 -1.2385 -0.0395
  287DMF     H5 3931   0.160   1.987   0.336  1.8298 -0.9417  1.1839
  287DMF     H6 3932   0.093   2.118   0.415  0.1966  1.6201  0.1257
  287DMF     H7 3933   0.073   2.112   0.133  0.2041  0.3337  1.3542
  288DMF     C1 3934   0.227   1.846   2.453  0.5760  0.3146  0.0467
  288DMF     N1 3935   0.205   1.743   2.355 -0.4329 -0.0934 -0.3767
  288DMF     C2 3936   0.314   1.638   2.332 -0.3531  0.5784 -0.5521
  288DMF     C3 3937   0.105   1.762   2.257 -0.4871  0.7021 -0.1069
  288DMF     O1 3938   0.024   1.854   2.252  0.6125  0.5259  0.7207
  288DMF     H1 3939   0.229   1.944   2.404  0.5841  1.5234  2.3911
  288DMF     H2 3940   0.320   1.835   2.509  1.0268 -2.0286 -1.1243
  288DMF     H3 3941   0.145   1.855   2.526 -0.4986  1.0343 -1.2090
  288DMF     H4 3942   0.273   1.550   2.280 -0.2466 -0.1091  0.4961
  288DMF     H5 3943   0.365   1.625   2.428 -2.3509 -1.0015  0.3300
  288DMF     H6 3944   0.381   1.669   2.250 -2.8520  0.6501 -2.6160
  288DMF     H7 3945   0.110   1.685   2.178 -1.0301 -0.9455  1.4476
  289DMF     C1 3946   1.523   2.341   2.495  0.2616  0.6467  0.1504
  289DMF     N1 3947   1.545   2.490   2.491 -0.3073 -0.4284  0.3538
  289DMF     C2 3948   1.553   2.560   2.614 -0.0771 -0.3770 -0.5155
  289DMF     C3 3949   1.552   2.557   2.367  0.1225 -1.0074 -0.4851
  289DMF     O1 3950   1.537   2.497   2.265 -0.1633 -0.0808  0.3156
  289DMF     H1 3951   1.560   2.289   2.405 -0.3790 -2.8702  1.8541
  289DMF     H2 3952   1.416   2.326   2.509  0.4562  0.9866  2.1801
  289DMF     H3 3953   1.566   2.288   2.581  2.3448 -0.7584 -1.6885
  289DMF     H4 3954   1.639   2.628   2.618 -0.6606  0.3195  0.5722
  289DMF     H5 3955   1.555   2.490   2.699 -1.5551  0.5402  0.3068
  289DMF     H6 3956   1.463   2.621   2.627  0.6436  0.8472 -1.1640
  289DMF     H7 3957   1.571   2.665   2.368 -1.2882 -0.7427  1.1729
  290DMF     C1 3958   2.397   3.011   2.263 -0.5642 -0.1395  0.2126
  290DMF     N1 3959   2.542   2.974   2.249 -0.3151  0.3447  0.0589
  290DMF     C2 3960   2.563   2.826   2.262 -0.2478 -0.4007  0.6157
  290DMF     C3 3961   2.644   3.068   2.227 -0.5015 -0.0990  0.0893
  290DMF     O1 3962   2.615   3.185   2.220 -0.4955  0.1810 -0.1933
  290DMF     H1 3963   2.365   2.970   2.359  0.6984  1.1374  1.2113
  290DMF     H2 3964   2.335   2.972   2.182 -0.3795 -0.5904  0.2889
  290DMF     H3 3965   2.380   3.119   2.273 -0.2371  0.1292 -1.8292
  290DMF     H4 3966   2.480   2.785   2.203 -0.9031 -0.7409  1.7430
  290DMF     H5 3967   2.555   2.789   2.366 -0.1249  0.6193  0.9886
  290DMF     H6 3968   2.657   2.781   2.227 -0.4100  0.5238 -1.0301
  290DMF     H7 3969   2.747   3.029   2.217  0.5428  2.4912  0.2299
  291DMF     C1 3970   1.720   0.979   0.091  0.6986 -0.5864  0.0219
  291DMF     N1 3971   1.774   0.865   0.009  0.2817 -0.1544  0.5035
  291DMF     C2 3972   1.861   0.761   0.068  0.4660 -0.0634  0.7715
  291DMF     C3 3973   1.755   0.885  -0.132  0.6634 -0.0160  0.2008
  291DMF     O1 3974   1.689   0.975  -0.186 -0.2742 -0.4716  0.6003
  291DMF     H1 3975   1.771   1.068   0.053  0.3815  0.1160  1.2151
  291DMF     H2 3976   1.748   0.966   0.197 -1.3294 -2.5603  0.3541
  291DMF     H3 3977   1.613   0.998   0.082  0.1804 -2.0144  2.5762
  291DMF     H4 3978   1.903   0.698  -0.011  0.3947  1.0847 -0.1932
  291DMF     H5 3979   1.806   0.696   0.136  0.3989 -0.0368  0.7431
  291DMF     H6 3980   1.938   0.815   0.124 -0.8780  3.0371 -0.2617
  291DMF     H7 3981   1.813   0.819  -0.198  2.3687  2.9199 -1.3148
  292DMF     C1 3982   0.575   3.285   2.338 -0.0672 -0.2545  0.3005
  292DMF     N1 3983   0.506   3.413   2.366  0.1305  0.1975 -0.1358
  292DMF     C2 3984   0.394   3.454   2.272 -0.6901  0.2650  0.0453
  292DMF     C3 3985   0.539   3.487   2.474  0.1185 -0.2033  0.7494
  292DMF     O1 3986   0.641   3.475   2.538  0.0398 -0.4785  0.0104
  292DMF     H1 3987   0.671   3.323   2.301 -0.7479 -0.3741 -1.6699
  292DMF     H2 3988   0.523   3.229   2.259  0.2426 -2.2684  1.4930
  292DMF     H3 3989   0.587   3.224   2.428 -2.6234 -0.9492  0.1989
  292DMF     H4 3990   0.297   3.422   2.311 -1.4804  1.2304 -1.1071
  292DMF     H5 3991   0.418   3.405   2.176  1.6067  0.6586  0.3954
  292DMF     H6 3992   0.385   3.562   2.261  0.3716  0.2121 -1.5133
  292DMF     H7 3993   0.470   3.572   2.491  3.2505  2.3390  1.1272
  293DMF     C1 3994   1.656   0.906   2.708 -0.5935 -0.0509  0.2649
  293DMF     N1 3995   1.612   0.773   2.677 -0.1311 -0.0629 -0.3899
  293DMF     C2 3996   1.473   0.760   2.629  0.1804 -0.3571 -0.0355
  293DMF     C3 3997   1.694   0.658   2.686 -0.0617  0.1431  0.0810
  293DMF     O1 3998   1.801   0.667   2.736  0.1293  0.5095 -0.4470
  293DMF     H1 3999   1.723   0.903   2.795 -0.0343  0.5784 -0.1412
  293DMF     H2 4000   1.568   0.967   2.730  0.9353  2.1218  0.5737
  293DMF     H3 4001   1.707   0.939   2.617  0.0505 -2.0378 -0.1141
  293DMF     H4 4002   1.424   0.856   2.607  0.4019 -0.1671  0.2860
  293DMF     H5 4003   1.415   0.711   2.708  1.1415 -0.0350  0.8922
  293DMF     H6 4004   1.488   0.702   2.538  1.3980 -0.4728  0.2239
  293DMF     H7 4005   1.654   0.562   2.650 -1.4279 -0.4054  2.9119
  294DMF     C1 4006   2.341   1.951   0.653  0.4230  0.7000 -0.2745
  294DMF     N1 4007   2.269   1.932   0.531 -0.2075  0.7951  0.1762
  294DMF     C2 4008   2.129   1.870   0.539 -0.0845 -1.0337 -0.4382
  294DMF     C3 4009   2.325   1.964   0.407  0.4170  0.0885 -0.7332
  294DMF     O1 4010   2.426   2.027   0.401 -0.5606  0.2792  0.4685
  294DMF     H1 4011   2.277   2.006   0.723 -0.1736 -1.3371  0.8089
  294DMF     H2 4012   2.434   2.009   0.638 -1.1102  2.7639 -2.3197
  294DMF     H3 4013   2.350   1.851   0.697  1.5462  0.6187 -0.6518
  294DMF     H4 4014   2.073   1.938   0.604  0.4175  0.3651 -1.4363
  294DMF     H5 4015   2.139   1.769   0.579  1.1234 -0.0736  1.7908
  294DMF     H6 4016   2.076   1.877   0.443 -3.7832  0.8495  1.6178
  294DMF     H7 4017   2.271   1.922   0.321 -2.4162  0.6787  0.7153
  295DMF     C1 4018   2.171   3.314   2.281 -0.5903 -0.0522 -0.1245
  295DMF     N1 4019   2.124   3.238   2.400 -0.0137  0.5262  0.4957
  295DMF     C2 4020   2.066   3.100   2.371 -0.0910  0.5760  0.0037
  295DMF     C3 4021   2.148   3.277   2.541  0.4178 -0.4791 -0.0901
  295DMF     O1 4022   2.201   3.378   2.573  0.1520  0.0471  0.2650
  295DMF     H1 4023   2.280   3.330   2.277 -0.6928  0.6463 -0.1409
  295DMF     H2 4024   2.125   3.413   2.288 -0.7747 -0.2270  1.1005
  295DMF     H3 4025   2.127   3.271   2.190 -1.5726 -3.4104  1.8323
  295DMF     H4 4026   1.996   3.089   2.455  0.1276  1.4048  0.2965
  295DMF     H5 4027   2.146   3.027   2.390 -0.2246  0.9789  2.2134
  295DMF     H6 4028   2.028   3.095   2.268  0.1830  0.8678 -0.1116
  295DMF     H7 4029   2.115   3.199   2.611  2.4079 -1.0733  0.2296
  296DMF     C1 4030   1.332   0.596   3.413  0.4484 -0.1000 -0.2516
  296DMF     N1 4031   1.453   0.660   3.468  0.1860  0.2647 -0.3368
  296DMF     C2 4032   1.450   0.806   3.475  0.0340 -0.5254 -0.0560
  296DMF     C3 4033   1.564   0.591   3.518 -0.0617  0.1213  0.1258
  296DMF     O1 4034   1.568   0.473   3.528 -0.1335 -0.4250  0.3095
  296DMF     H1 4035   1.364   0.555   3.316  1.3890  1.3293 -0.5687
  296DMF     H2 4036   1.242   0.657   3.406 -1.6237 -2.8755  1.1164
  296DMF     H3 4037   1.308   0.521   3.489  2.7953 -1.2931 -0.6224
  296DMF     H4 4038   1.350   0.841   3.450  0.6042  0.7414 -0.6094
  296DMF     H5 4039   1.525   0.842   3.403 -0.7680 -1.3392 -1.3227
  296DMF     H6 4040   1.473   0.823   3.581 -1.5571 -0.2047  0.2389
  296DMF     H7 4041   1.639   0.659   3.562  0.9961 -2.4424  2.4288
  297DMF     C1 4042   1.298   3.300   3.111 -0.2986 -0.0079  0.3096
  297DMF     N1 4043   1.189   3.396   3.086 -0.6361  0.3357  0.0478
  297DMF     C2 4044   1.139   3.414   2.947 -0.9117 -0.6258 -0.2305
  297DMF     C3 4045   1.167   3.488   3.183  0.0904  0.6818 -0.2214
  297DMF     O1 4046   1.202   3.477   3.302 -0.2184 -0.1150  0.3967
  297DMF     H1 4047   1.356   3.317   3.202  1.5323  1.5032 -1.1061
  297DMF     H2 4048   1.362   3.292   3.023 -0.2356 -3.2019  0.5915
  297DMF     H3 4049   1.248   3.204   3.128 -0.9113 -0.4957 -3.7372
  297DMF     H4 4050   1.031   3.393   2.945 -0.8443 -1.4740  2.3615
  297DMF     H5 4051   1.200   3.346   2.886  0.2713  1.1460 -1.0303
  297DMF     H6 4052   1.152   3.519   2.919  0.2972 -1.1514 -1.7133
  297DMF     H7 4053   1.099   3.567   3.147  1.3246  1.6241 -0.4802
  298DMF     C1 4054   2.050   1.849   3.452 -0.1839 -0.4246 -1.0032
  298DMF     N1 4055   1.946   1.802   3.543 -0.4062  0.3391  0.1795
  298DMF     C2 4056   1.987   1.719   3.654 -0.0221 -1.2110 -0.2757
  298DMF     C3 4057   1.818   1.851   3.531 -0.5232  0.6527  0.5218
  298DMF     O1 4058   1.791   1.944   3.451  0.2683  0.1732  0.2091
  298DMF     H1 4059   2.016   1.891   3.357 -0.2092  3.0923  0.5146
  298DMF     H2 4060   2.102   1.755   3.429  0.2693 -0.7947  1.4214
  298DMF     H3 4061   2.122   1.915   3.501 -0.6764 -0.9583  0.4777
  298DMF     H4 4062   2.089   1.736   3.690 -0.3292  1.4332 -0.5789
  298DMF     H5 4063   1.956   1.613   3.652 -1.8085 -0.7040 -0.3084
  298DMF     H6 4064   1.929   1.757   3.738 -0.6064  1.3662 -1.7861
  298DMF     H7 4065   1.746   1.798   3.596 -0.7773 -0.8174 -0.9288
  299DMF     C1 4066   0.558   2.186   1.026  0.0236  0.0482  0.0777
  299DMF     N1 4067   0.563   2.269   1.143 -0.1278 -0.3656 -0.4317
  299DMF     C2 4068   0.451   2.367   1.162 -0.1058  0.2049 -0.3024
  299DMF     C3 4069   0.682   2.280   1.219  0.0004  0.0910 -0.1457
  299DMF     O1 4070   0.778   2.210   1.210  0.5247 -0.3500 -0.2856
  299DMF     H1 4071   0.627   2.223   0.949 -1.2999  1.6677 -0.3740
  299DMF     H2 4072   0.462   2.189   0.972 -0.5950 -1.1425  1.0890
  299DMF     H3 4073   0.578   2.085   1.063 -1.3087  0.5671  2.2689
  299DMF     H4 4074   0.404   2.342   1.257  0.6429 -1.6174 -0.3978
  299DMF     H5 4075   0.371   2.357   1.087  0.0741 -0.8827 -0.3598
  299DMF     H6 4076   0.491   2.469   1.171 -0.3425  0.4314 -1.6143
  299DMF     H7 4077   0.661   2.353   1.300 -2.0801 -0.9157  0.2570
  300DMF     C1 4078   2.637   0.554   3.073  0.1927 -0.1957 -0.6428
  300DMF     N1 4079   2.565   0.538   2.946  0.1438  0.4797 -0.5149
  300DMF     C2 4080   2.626   0.443   2.845 -0.3365  0.3990  0.6543
  300DMF     C3 4081   2.443   0.602   2.924  0.0551 -0.4691 -0.5364
  300DMF     O1 4082   2.392   0.668   3.013  0.5366  0.1284  0.5616
  300DMF     H1 4083   2.736   0.596   3.052  0.2023  1.0464  1.6853
  300DMF     H2 4084   2.641   0.467   3.139  0.7411  1.6959  1.8811
  300DMF     H3 4085   2.601   0.641   3.129 -2.2831 -2.0446  0.7338
  300DMF     H4 4086   2.539   0.383   2.815  0.5799 -0.6884  0.1104
  300DMF     H5 4087   2.691   0.370   2.895  0.9930  0.5339 -0.8096
  300DMF     H6 4088   2.681   0.494   2.764 -0.9380 -1.4297 -0.9521
  300DMF     H7 4089   2.401   0.591   2.822 -1.1514 -0.4611 -0.0466
  301DMF     C1 4090   3.048   1.859   1.388  0.0788  0.1712 -0.5190
  301DMF     N1 4091   3.122   1.737   1.423  0.1619 -0.1722 -0.0237
  301DMF     C2 4092   3.063   1.606   1.394  0.4629 -0.4531  0.2934
  301DMF     C3 4093   3.245   1.739   1.497 -0.3335 -1.0680  0.0689
  301DMF     O1 4094   3.292   1.840   1.554 -0.2829 -0.2932 -0.0189
  301DMF     H1 4095   3.023   1.855   1.281 -0.8564 -0.4309 -0.2845
  301DMF     H2 4096   3.108   1.945   1.420 -1.4427  0.8910  0.4672
  301DMF     H3 4097   2.949   1.858   1.437  0.4929  1.5191  0.3647
  301DMF     H4 4098   2.956   1.598   1.418  0.3646 -1.3844 -0.3987
  301DMF     H5 4099   3.118   1.536   1.458  0.1265  0.3774  1.5084
  301DMF     H6 4100   3.081   1.589   1.287  3.5993  0.7985  0.5824
  301DMF     H7 4101   3.296   1.642   1.512  0.8184 -0.0329  3.4828
  302DMF     C1 4102   0.801   0.501   0.331  0.2145  0.0407 -0.5969
  302DMF     N1 4103   0.857   0.448   0.458  0.1813  0.3651 -0.3253
  302DMF     C2 4104   0.781   0.342   0.527 -1.2604  0.4711 -0.3100
  302DMF     C3 4105   0.966   0.499   0.518  0.0959  0.3741 -0.1792
  302DMF     O1 4106   1.011   0.605   0.478  0.3312  0.0055 -0.2401
  302DMF     H1 4107   0.879   0.547   0.270 -2.8197  2.2590 -2.9658
  302DMF     H2 4108   0.730   0.583   0.349  0.3059  0.4134 -1.8900
  302DMF     H3 4109   0.740   0.424   0.281 -2.5821  0.0485  2.5700
  302DMF     H4 4110   0.849   0.272   0.576 -0.1314  1.9417  0.2641
  302DMF     H5 4111   0.724   0.284   0.453 -0.3492 -4.1647  2.4505
  302DMF     H6 4112   0.720   0.382   0.609 -0.5864 -0.6859  0.7690
  302DMF     H7 4113   1.008   0.448   0.606 -1.8474 -0.1790  0.4405
  303DMF     C1 4114   3.191   2.967   1.198  0.5671  0.5000  0.4463
  303DMF     N1 4115   3.177   2.935   1.052 -0.7214 -0.0690  0.5948
  303DMF     C2 4116   3.044   2.916   0.997 -0.0907 -0.2075 -0.3336
  303DMF     C3 4117   3.289   2.911   0.977 -0.5576 -0.5729  0.7984
  303DMF     O1 4118   3.399   2.913   1.029  0.2043 -0.1796 -0.1267
  303DMF     H1 4119   3.289   3.008   1.224 -0.4344  2.1131  1.8451
  303DMF     H2 4120   3.179   2.872   1.251 -1.5524 -0.0169 -0.8913
  303DMF     H3 4121   3.114   3.035   1.238  0.0630 -0.6175  1.3874
  303DMF     H4 4122   3.003   3.014   0.973  1.4006  1.0519  2.0249
  303DMF     H5 4123   2.980   2.865   1.071 -0.3101 -1.7374 -1.5556
  303DMF     H6 4124   3.047   2.855   0.906  2.0703  0.4228 -0.7031
  303DMF     H7 4125   3.271   2.889   0.870 -1.2904  0.7691  0.6460
  304DMF     C1 4126   1.016   1.996   2.726  0.5069 -0.4871 -0.1932
  304DMF     N1 4127   1.151   2.046   2.756 -0.3928 -0.8046  0.0850
  304DMF     C2 4128   1.182   2.073   2.900  0.3293  0.2128 -0.1218
  304DMF     C3 4129   1.239   2.097   2.653 -0.2568 -0.8438 -0.4721
  304DMF     O1 4130   1.204   2.091   2.534 -0.2189  0.0827 -0.5018
  304DMF     H1 4131   0.992   1.988   2.619 -0.4448 -0.4766  0.0133
  304DMF     H2 4132   0.949   2.073   2.767  0.3123 -0.6248 -0.2513
  304DMF     H3 4133   1.002   1.897   2.773 -0.4296  0.3811  1.3915
  304DMF     H4 4134   1.160   2.175   2.934  0.3614 -0.8762  3.3096
  304DMF     H5 4135   1.287   2.044   2.910  0.3624  0.3298 -0.1291
  304DMF     H6 4136   1.125   2.001   2.960 -0.9819  0.9290 -0.4760
  304DMF     H7 4137   1.332   2.149   2.685  0.4910 -2.0559 -0.6200
  305DMF     C1 4138   0.612   1.033   3.089  0.8292 -0.7517 -0.2637
  305DMF     N1 4139   0.512   1.119   3.009  0.1411  0.0826 -0.4730
  305DMF     C2 4140   0.415   1.046   2.923  0.2945  0.7817  0.0242
  305DMF     C3 4141   0.504   1.266   3.003  0.0599  0.2134 -0.5731
  305DMF     O1 4142   0.566   1.335   3.082  0.2454  0.1701  0.1117
  305DMF     H1 4143   0.687   1.092   3.143  0.1294  0.7658 -0.9089
  305DMF     H2 4144   0.665   0.962   3.025  1.2677 -0.9211  0.2831
  305DMF     H3 4145   0.562   0.978   3.169  1.2998  0.3623  0.8088
  305DMF     H4 4146   0.444   0.942   2.906 -0.7108  0.2331  1.5370
  305DMF     H5 4147   0.413   1.091   2.823 -2.0658 -0.3473 -0.4692
  305DMF     H6 4148   0.312   1.039   2.961  1.0574  1.3619  2.2916
  305DMF     H7 4149   0.424   1.299   2.934 -0.0131 -0.5378 -0.8571
  306DMF     C1 4150   1.604   0.675   0.373  0.1886 -0.5841  0.5653
  306DMF     N1 4151   1.628   0.542   0.436  0.4910 -0.1654  0.2710
  306DMF     C2 4152   1.682   0.538   0.568  0.6044 -0.2468  0.0311
  306DMF     C3 4153   1.595   0.421   0.360 -0.2163 -0.6694  0.1069
  306DMF     O1 4154   1.526   0.419   0.257 -0.1105  0.1649 -0.1439
  306DMF     H1 4155   1.599   0.754   0.449  3.1399  1.1646 -0.9768
  306DMF     H2 4156   1.512   0.665   0.314  1.8273 -2.1837 -1.7820
  306DMF     H3 4157   1.693   0.697   0.313 -0.2617 -1.4272 -0.4293
  306DMF     H4 4158   1.619   0.584   0.645  0.1953  1.0165 -1.0372
  306DMF     H5 4159   1.771   0.600   0.585 -0.2970  0.5715  1.8042
  306DMF     H6 4160   1.710   0.438   0.603  3.9295  0.0565 -1.5170
  306DMF     H7 4161   1.652   0.337   0.404 -1.2834 -1.3882  0.1221
  307DMF     C1 4162   2.980   2.965   0.536 -0.2510 -0.3357  0.3226
  307DMF     N1 4163   2.854   2.994   0.468  0.9291  0.2110  0.8419
  307DMF     C2 4164   2.863   3.051   0.331 -0.0204  0.3495 -0.4350
  307DMF     C3 4165   2.734   2.990   0.542  1.2810  0.5339 -0.4410
  307DMF     O1 4166   2.720   2.964   0.658  0.1439  0.2691 -0.3380
  307DMF     H1 4167   2.977   2.879   0.604  0.8893  0.6102  1.6069
  307DMF     H2 4168   3.014   3.047   0.601 -1.6609 -0.5969  1.4125
  307DMF     H3 4169   3.060   2.953   0.462 -0.1242  0.2414  0.3591
  307DMF     H4 4170   2.863   2.960   0.270 -2.2418 -0.0793  0.1633
  307DMF     H5 4171   2.957   3.107   0.334 -0.5458  1.1930  0.2875
  307DMF     H6 4172   2.777   3.112   0.302  0.7701  1.7253  0.0966
  307DMF     H7 4173   2.649   3.010   0.473  1.0111 -1.8812 -0.8428
   3.40320   3.43847   3.80000
