HFIP comparator n4
 3225
    1GR      C1    1   0.000   0.000   1.900  0.0000  0.0000  0.0000
    1GR      C2    2   0.142   0.000   1.900  0.0000  0.0000  0.0000
    1GR      C3    3   0.213   0.123   1.900  0.0000  0.0000  0.0000
    1GR      C4    4   0.354   0.123   1.900  0.0000  0.0000  0.0000
    1GR      C5    5   0.000   0.246   1.900  0.0000  0.0000  0.0000
    1GR      C6    6   0.142   0.246   1.900  0.0000  0.0000  0.0000
    1GR      C7    7   0.213   0.368   1.900  0.0000  0.0000  0.0000
    1GR      C8    8   0.354   0.368   1.900  0.0000  0.0000  0.0000
    1GR      C9    9   0.000   0.491   1.900  0.0000  0.0000  0.0000
    1GR     C10   10   0.142   0.491   1.900  0.0000  0.0000  0.0000
    1GR     C11   11   0.213   0.614   1.900  0.0000  0.0000  0.0000
    1GR     C12   12   0.354   0.614   1.900  0.0000  0.0000  0.0000
    1GR     C13   13   0.000   0.737   1.900  0.0000  0.0000  0.0000
    1GR     C14   14   0.142   0.737   1.900  0.0000  0.0000  0.0000
    1GR     C15   15   0.213   0.860   1.900  0.0000  0.0000  0.0000
    1GR     C16   16   0.354   0.860   1.900  0.0000  0.0000  0.0000
    1GR     C17   17   0.000   0.982   1.900  0.0000  0.0000  0.0000
    1GR     C18   18   0.142   0.982   1.900  0.0000  0.0000  0.0000
    1GR     C19   19   0.213   1.105   1.900  0.0000  0.0000  0.0000
    1GR     C20   20   0.354   1.105   1.900  0.0000  0.0000  0.0000
    1GR     C21   21   0.000   1.228   1.900  0.0000  0.0000  0.0000
    1GR     C22   22   0.142   1.228   1.900  0.0000  0.0000  0.0000
    1GR     C23   23   0.213   1.351   1.900  0.0000  0.0000  0.0000
    1GR     C24   24   0.354   1.351   1.900  0.0000  0.0000  0.0000
    1GR     C25   25   0.000   1.474   1.900  0.0000  0.0000  0.0000
    1GR     C26   26   0.142   1.474   1.900  0.0000  0.0000  0.0000
    1GR     C27   27   0.213   1.596   1.900  0.0000  0.0000  0.0000
    1GR     C28   28   0.354   1.596   1.900  0.0000  0.0000  0.0000
    1GR     C29   29   0.000   1.719   1.900  0.0000  0.0000  0.0000
    1GR     C30   30   0.142   1.719   1.900  0.0000  0.0000  0.0000
    1GR     C31   31   0.213   1.842   1.900  0.0000  0.0000  0.0000
    1GR     C32   32   0.354   1.842   1.900  0.0000  0.0000  0.0000
    1GR     C33   33   0.000   1.965   1.900  0.0000  0.0000  0.0000
    1GR     C34   34   0.142   1.965   1.900  0.0000  0.0000  0.0000
    1GR     C35   35   0.213   2.088   1.900  0.0000  0.0000  0.0000
    1GR     C36   36   0.354   2.088   1.900  0.0000  0.0000  0.0000
    1GR     C37   37   0.000   2.210   1.900  0.0000  0.0000  0.0000
    1GR     C38   38   0.142   2.210   1.900  0.0000  0.0000  0.0000
    1GR     C39   39   0.213   2.333   1.900  0.0000  0.0000  0.0000
    1GR     C40   40   0.354   2.333   1.900  0.0000  0.0000  0.0000
    1GR     C41   41   0.000   2.456   1.900  0.0000  0.0000  0.0000
    1GR     C42   42   0.142   2.456   1.900  0.0000  0.0000  0.0000
    1GR     C43   43   0.213   2.579   1.900  0.0000  0.0000  0.0000
    1GR     C44   44   0.354   2.579   1.900  0.0000  0.0000  0.0000
    1GR     C45   45   0.000   2.702   1.900  0.0000  0.0000  0.0000
    1GR     C46   46   0.142   2.702   1.900  0.0000  0.0000  0.0000
    1GR     C47   47   0.213   2.824   1.900  0.0000  0.0000  0.0000
    1GR     C48   48   0.354   2.824   1.900  0.0000  0.0000  0.0000
    1GR     C49   49   0.000   2.947   1.900  0.0000  0.0000  0.0000
    1GR     C50   50   0.142   2.947   1.900  0.0000  0.0000  0.0000
    1GR     C51   51   0.213   3.070   1.900  0.0000  0.0000  0.0000
    1GR     C52   52   0.354   3.070   1.900  0.0000  0.0000  0.0000
    1GR     C53   53   0.000   3.193   1.900  0.0000  0.0000  0.0000
    1GR     C54   54   0.142   3.193   1.900  0.0000  0.0000  0.0000
    1GR     C55   55   0.213   3.316   1.900  0.0000  0.0000  0.0000
    1GR     C56   56   0.354   3.316   1.900  0.0000  0.0000  0.0000
    1GR     C57   57   0.425   0.000   1.900  0.0000  0.0000  0.0000
    1GR     C58   58   0.567   0.000   1.900  0.0000  0.0000  0.0000
    1GR     C59   59   0.638   0.123   1.900  0.0000  0.0000  0.0000
    1GR     C60   60   0.780   0.123   1.900  0.0000  0.0000  0.0000
    1GR     C61   61   0.425   0.246   1.900  0.0000  0.0000  0.0000
    1GR     C62   62   0.567   0.246   1.900  0.0000  0.0000  0.0000
    1GR     C63   63   0.638   0.368   1.900  0.0000  0.0000  0.0000
    1GR     C64   64   0.780   0.368   1.900  0.0000  0.0000  0.0000
    1GR     C65   65   0.425   0.491   1.900  0.0000  0.0000  0.0000
    1GR     C66   66   0.567   0.491   1.900  0.0000  0.0000  0.0000
    1GR     C67   67   0.638   0.614   1.900  0.0000  0.0000  0.0000
    1GR     C68   68   0.780   0.614   1.900  0.0000  0.0000  0.0000
    1GR     C69   69   0.425   0.737   1.900  0.0000  0.0000  0.0000
    1GR     C70   70   0.567   0.737   1.900  0.0000  0.0000  0.0000
    1GR     C71   71   0.638   0.860   1.900  0.0000  0.0000  0.0000
    1GR     C72   72   0.780   0.860   1.900  0.0000  0.0000  0.0000
    1GR     C73   73   0.425   0.982   1.900  0.0000  0.0000  0.0000
    1GR     C74   74   0.567   0.982   1.900  0.0000  0.0000  0.0000
    1GR     C75   75   0.638   1.105   1.900  0.0000  0.0000  0.0000
    1GR     C76   76   0.780   1.105   1.900  0.0000  0.0000  0.0000
    1GR     C77   77   0.425   1.228   1.900  0.0000  0.0000  0.0000
    1GR     C78   78   0.567   1.228   1.900  0.0000  0.0000  0.0000
    1GR     C79   79   0.638   1.351   1.900  0.0000  0.0000  0.0000
    1GR     C80   80   0.780   1.351   1.900  0.0000  0.0000  0.0000
    1GR     C81   81   0.425   1.474   1.900  0.0000  0.0000  0.0000
    1GR     C82   82   0.567   1.474   1.900  0.0000  0.0000  0.0000
    1GR     C83   83   0.638   1.596   1.900  0.0000  0.0000  0.0000
    1GR     C84   84   0.780   1.596   1.900  0.0000  0.0000  0.0000
    1GR     C85   85   0.425   1.719   1.900  0.0000  0.0000  0.0000
    1GR     C86   86   0.567   1.719   1.900  0.0000  0.0000  0.0000
    1GR     C87   87   0.638   1.842   1.900  0.0000  0.0000  0.0000
    1GR     C88   88   0.780   1.842   1.900  0.0000  0.0000  0.0000
    1GR     C89   89   0.425   1.965   1.900  0.0000  0.0000  0.0000
    1GR     C90   90   0.567   1.965   1.900  0.0000  0.0000  0.0000
    1GR     C91   91   0.638   2.088   1.900  0.0000  0.0000  0.0000
    1GR     C92   92   0.780   2.088   1.900  0.0000  0.0000  0.0000
    1GR     C93   93   0.425   2.210   1.900  0.0000  0.0000  0.0000
    1GR     C94   94   0.567   2.210   1.900  0.0000  0.0000  0.0000
    1GR     C95   95   0.638   2.333   1.900  0.0000  0.0000  0.0000
    1GR     C96   96   0.780   2.333   1.900  0.0000  0.0000  0.0000
    1GR     C97   97   0.425   2.456   1.900  0.0000  0.0000  0.0000
    1GR     C98   98   0.567   2.456   1.900  0.0000  0.0000  0.0000
    1GR     C99   99   0.638   2.579   1.900  0.0000  0.0000  0.0000
    1GR    C100  100   0.780   2.579   1.900  0.0000  0.0000  0.0000
    1GR    C101  101   0.425   2.702   1.900  0.0000  0.0000  0.0000
    1GR    C102  102   0.567   2.702   1.900  0.0000  0.0000  0.0000
    1GR    C103  103   0.638   2.824   1.900  0.0000  0.0000  0.0000
    1GR    C104  104   0.780   2.824   1.900  0.0000  0.0000  0.0000
    1GR    C105  105   0.425   2.947   1.900  0.0000  0.0000  0.0000
    1GR    C106  106   0.567   2.947   1.900  0.0000  0.0000  0.0000
    1GR    C107  107   0.638   3.070   1.900  0.0000  0.0000  0.0000
    1GR    C108  108   0.780   3.070   1.900  0.0000  0.0000  0.0000
    1GR    C109  109   0.425   3.193   1.900  0.0000  0.0000  0.0000
    1GR    C110  110   0.567   3.193   1.900  0.0000  0.0000  0.0000
    1GR    C111  111   0.638   3.316   1.900  0.0000  0.0000  0.0000
    1GR    C112  112   0.780   3.316   1.900  0.0000  0.0000  0.0000
    1GR    C113  113   0.851   0.000   1.900  0.0000  0.0000  0.0000
    1GR    C114  114   0.993   0.000   1.900  0.0000  0.0000  0.0000
    1GR    C115  115   1.064   0.123   1.900  0.0000  0.0000  0.0000
    1GR    C116  116   1.205   0.123   1.900  0.0000  0.0000  0.0000
    1GR    C117  117   0.851   0.246   1.900  0.0000  0.0000  0.0000
    1GR    C118  118   0.993   0.246   1.900  0.0000  0.0000  0.0000
    1GR    C119  119   1.064   0.368   1.900  0.0000  0.0000  0.0000
    1GR    C120  120   1.205   0.368   1.900  0.0000  0.0000  0.0000
    1GR    C121  121   0.851   0.491   1.900  0.0000  0.0000  0.0000
    1GR    C122  122   0.993   0.491   1.900  0.0000  0.0000  0.0000
    1GR    C123  123   1.064   0.614   1.900  0.0000  0.0000  0.0000
    1GR    C124  124   1.205   0.614   1.900  0.0000  0.0000  0.0000
    1GR    C125  125   0.851   0.737   1.900  0.0000  0.0000  0.0000
    1GR    C126  126   0.993   0.737   1.900  0.0000  0.0000  0.0000
    1GR    C127  127   1.064   0.860   1.900  0.0000  0.0000  0.0000
    1GR    C128  128   1.205   0.860   1.900  0.0000  0.0000  0.0000
    1GR    C129  129   0.851   0.982   1.900  0.0000  0.0000  0.0000
    1GR    C130  130   0.993   0.982   1.900  0.0000  0.0000  0.0000
    1GR    C131  131   1.064   1.105   1.900  0.0000  0.0000  0.0000
    1GR    C132  132   1.205   1.105   1.900  0.0000  0.0000  0.0000
    1GR    C133  133   0.851   1.228   1.900  0.0000  0.0000  0.0000
    1GR    C134  134   0.993   1.228   1.900  0.0000  0.0000  0.0000
    1GR    C135  135   1.064   1.351   1.900  0.0000  0.0000  0.0000
    1GR    C136  136   1.205   1.351   1.900  0.0000  0.0000  0.0000
    1GR    C137  137   0.851   1.474   1.900  0.0000  0.0000  0.0000
    1GR    C138  138   0.993   1.474   1.900  0.0000  0.0000  0.0000
    1GR    C139  139   1.064   1.596   1.900  0.0000  0.0000  0.0000
    1GR    C140  140   1.205   1.596   1.900  0.0000  0.0000  0.0000
    1GR    C141  141   0.851   1.719   1.900  0.0000  0.0000  0.0000
    1GR    C142  142   0.993   1.719   1.900  0.0000  0.0000  0.0000
    1GR    C143  143   1.064   1.842   1.900  0.0000  0.0000  0.0000
    1GR    C144  144   1.205   1.842   1.900  0.0000  0.0000  0.0000
    1GR    C145  145   0.851   1.965   1.900  0.0000  0.0000  0.0000
    1GR    C146  146   0.993   1.965   1.900  0.0000  0.0000  0.0000
    1GR    C147  147   1.064   2.088   1.900  0.0000  0.0000  0.0000
    1GR    C148  148   1.205   2.088   1.900  0.0000  0.0000  0.0000
    1GR    C149  149   0.851   2.210   1.900  0.0000  0.0000  0.0000
    1GR    C150  150   0.993   2.210   1.900  0.0000  0.0000  0.0000
    1GR    C151  151   1.064   2.333   1.900  0.0000  0.0000  0.0000
    1GR    C152  152   1.205   2.333   1.900  0.0000  0.0000  0.0000
    1GR    C153  153   0.851   2.456   1.900  0.0000  0.0000  0.0000
    1GR    C154  154   0.993   2.456   1.900  0.0000  0.0000  0.0000
    1GR    C155  155   1.064   2.579   1.900  0.0000  0.0000  0.0000
    1GR    C156  156   1.205   2.579   1.900  0.0000  0.0000  0.0000
    1GR    C157  157   0.851   2.702   1.900  0.0000  0.0000  0.0000
    1GR    C158  158   0.993   2.702   1.900  0.0000  0.0000  0.0000
    1GR    C159  159   1.064   2.824   1.900  0.0000  0.0000  0.0000
    1GR    C160  160   1.205   2.824   1.900  0.0000  0.0000  0.0000
    1GR    C161  161   0.851   2.947   1.900  0.0000  0.0000  0.0000
    1GR    C162  162   0.993   2.947   1.900  0.0000  0.0000  0.0000
    1GR    C163  163   1.064   3.070   1.900  0.0000  0.0000  0.0000
    1GR    C164  164   1.205   3.070   1.900  0.0000  0.0000  0.0000
    1GR    C165  165   0.851   3.193   1.900  0.0000  0.0000  0.0000
    1GR    C166  166   0.993   3.193   1.900  0.0000  0.0000  0.0000
    1GR    C167  167   1.064   3.316   1.900  0.0000  0.0000  0.0000
    1GR    C168  168   1.205   3.316   1.900  0.0000  0.0000  0.0000
    1GR    C169  169   1.276   0.000   1.900  0.0000  0.0000  0.0000
    1GR    C170  170   1.418   0.000   1.900  0.0000  0.0000  0.0000
    1GR    C171  171   1.489   0.123   1.900  0.0000  0.0000  0.0000
    1GR    C172  172   1.631   0.123   1.900  0.0000  0.0000  0.0000
    1GR    C173  173   1.276   0.246   1.900  0.0000  0.0000  0.0000
    1GR    C174  174   1.418   0.246   1.900  0.0000  0.0000  0.0000
    1GR    C175  175   1.489   0.368   1.900  0.0000  0.0000  0.0000
    1GR    C176  176   1.631   0.368   1.900  0.0000  0.0000  0.0000
    1GR    C177  177   1.276   0.491   1.900  0.0000  0.0000  0.0000
    1GR    C178  178   1.418   0.491   1.900  0.0000  0.0000  0.0000
    1GR    C179  179   1.489   0.614   1.900  0.0000  0.0000  0.0000
    1GR    C180  180   1.631   0.614   1.900  0.0000  0.0000  0.0000
    1GR    C181  181   1.276   0.737   1.900  0.0000  0.0000  0.0000
    1GR    C182  182   1.418   0.737   1.900  0.0000  0.0000  0.0000
    1GR    C183  183   1.489   0.860   1.900  0.0000  0.0000  0.0000
    1GR    C184  184   1.631   0.860   1.900  0.0000  0.0000  0.0000
    1GR    C185  185   1.276   0.982   1.900  0.0000  0.0000  0.0000
    1GR    C186  186   1.418   0.982   1.900  0.0000  0.0000  0.0000
    1GR    C187  187   1.489   1.105   1.900  0.0000  0.0000  0.0000
    1GR    C188  188   1.631   1.105   1.900  0.0000  0.0000  0.0000
    1GR    C189  189   1.276   1.228   1.900  0.0000  0.0000  0.0000
    1GR    C190  190   1.418   1.228   1.900  0.0000  0.0000  0.0000
    1GR    C191  191   1.489   1.351   1.900  0.0000  0.0000  0.0000
    1GR    C192  192   1.631   1.351   1.900  0.0000  0.0000  0.0000
    1GR    C193  193   1.276   1.474   1.900  0.0000  0.0000  0.0000
    1GR    C194  194   1.418   1.474   1.900  0.0000  0.0000  0.0000
    1GR    C195  195   1.489   1.596   1.900  0.0000  0.0000  0.0000
    1GR    C196  196   1.631   1.596   1.900  0.0000  0.0000  0.0000
    1GR    C197  197   1.276   1.719   1.900  0.0000  0.0000  0.0000
    1GR    C198  198   1.418   1.719   1.900  0.0000  0.0000  0.0000
    1GR    C199  199   1.489   1.842   1.900  0.0000  0.0000  0.0000
    1GR    C200  200   1.631   1.842   1.900  0.0000  0.0000  0.0000
    1GR    C201  201   1.276   1.965   1.900  0.0000  0.0000  0.0000
    1GR    C202  202   1.418   1.965   1.900  0.0000  0.0000  0.0000
    1GR    C203  203   1.489   2.088   1.900  0.0000  0.0000  0.0000
    1GR    C204  204   1.631   2.088   1.900  0.0000  0.0000  0.0000
    1GR    C205  205   1.276   2.210   1.900  0.0000  0.0000  0.0000
    1GR    C206  206   1.418   2.210   1.900  0.0000  0.0000  0.0000
    1GR    C207  207   1.489   2.333   1.900  0.0000  0.0000  0.0000
    1GR    C208  208   1.631   2.333   1.900  0.0000  0.0000  0.0000
    1GR    C209  209   1.276   2.456   1.900  0.0000  0.0000  0.0000
    1GR    C210  210   1.418   2.456   1.900  0.0000  0.0000  0.0000
    1GR    C211  211   1.489   2.579   1.900  0.0000  0.0000  0.0000
    1GR    C212  212   1.631   2.579   1.900  0.0000  0.0000  0.0000
    1GR    C213  213   1.276   2.702   1.900  0.0000  0.0000  0.0000
    1GR    C214  214   1.418   2.702   1.900  0.0000  0.0000  0.0000
    1GR    C215  215   1.489   2.824   1.900  0.0000  0.0000  0.0000
    1GR    C216  216   1.631   2.824   1.900  0.0000  0.0000  0.0000
    1GR    C217  217   1.276   2.947   1.900  0.0000  0.0000  0.0000
    1GR    C218  218   1.418   2.947   1.900  0.0000  0.0000  0.0000
    1GR    C219  219   1.489   3.070   1.900  0.0000  0.0000  0.0000
    1GR    C220  220   1.631   3.070   1.900  0.0000  0.0000  0.0000
    1GR    C221  221   1.276   3.193   1.900  0.0000  0.0000  0.0000
    1GR    C222  222   1.418   3.193   1.900  0.0000  0.0000  0.0000
    1GR    C223  223   1.489   3.316   1.900  0.0000  0.0000  0.0000
    1GR    C224  224   1.631   3.316   1.900  0.0000  0.0000  0.0000
    1GR    C225  225   1.702   0.000   1.900  0.0000  0.0000  0.0000
    1GR    C226  226   1.843   0.000   1.900  0.0000  0.0000  0.0000
    1GR    C227  227   1.914   0.123   1.900  0.0000  0.0000  0.0000
    1GR    C228  228   2.056   0.123   1.900  0.0000  0.0000  0.0000
    1GR    C229  229   1.702   0.246   1.900  0.0000  0.0000  0.0000
    1GR    C230  230   1.843   0.246   1.900  0.0000  0.0000  0.0000
    1GR    C231  231   1.914   0.368   1.900  0.0000  0.0000  0.0000
    1GR    C232  232   2.056   0.368   1.900  0.0000  0.0000  0.0000
    1GR    C233  233   1.702   0.491   1.900  0.0000  0.0000  0.0000
    1GR    C234  234   1.843   0.491   1.900  0.0000  0.0000  0.0000
    1GR    C235  235   1.914   0.614   1.900  0.0000  0.0000  0.0000
    1GR    C236  236   2.056   0.614   1.900  0.0000  0.0000  0.0000
    1GR    C237  237   1.702   0.737   1.900  0.0000  0.0000  0.0000
    1GR    C238  238   1.843   0.737   1.900  0.0000  0.0000  0.0000
    1GR    C239  239   1.914   0.860   1.900  0.0000  0.0000  0.0000
    1GR    C240  240   2.056   0.860   1.900  0.0000  0.0000  0.0000
    1GR    C241  241   1.702   0.982   1.900  0.0000  0.0000  0.0000
    1GR    C242  242   1.843   0.982   1.900  0.0000  0.0000  0.0000
    1GR    C243  243   1.914   1.105   1.900  0.0000  0.0000  0.0000
    1GR    C244  244   2.056   1.105   1.900  0.0000  0.0000  0.0000
    1GR    C245  245   1.702   1.228   1.900  0.0000  0.0000  0.0000
    1GR    C246  246   1.843   1.228   1.900  0.0000  0.0000  0.0000
    1GR    C247  247   1.914   1.351   1.900  0.0000  0.0000  0.0000
    1GR    C248  248   2.056   1.351   1.900  0.0000  0.0000  0.0000
    1GR    C249  249   1.702   1.474   1.900  0.0000  0.0000  0.0000
    1GR    C250  250   1.843   1.474   1.900  0.0000  0.0000  0.0000
    1GR    C251  251   1.914   1.596   1.900  0.0000  0.0000  0.0000
    1GR    C252  252   2.056   1.596   1.900  0.0000  0.0000  0.0000
    1GR    C253  253   1.702   1.719   1.900  0.0000  0.0000  0.0000
    1GR    C254  254   1.843   1.719   1.900  0.0000  0.0000  0.0000
    1GR    C255  255   1.914   1.842   1.900  0.0000  0.0000  0.0000
    1GR    C256  256   2.056   1.842   1.900  0.0000  0.0000  0.0000
    1GR    C257  257   1.702   1.965   1.900  0.0000  0.0000  0.0000
    1GR    C258  258   1.843   1.965   1.900  0.0000  0.0000  0.0000
    1GR    C259  259   1.914   2.088   1.900  0.0000  0.0000  0.0000
    1GR    C260  260   2.056   2.088   1.900  0.0000  0.0000  0.0000
    1GR    C261  261   1.702   2.210   1.900  0.0000  0.0000  0.0000
    1GR    C262  262   1.843   2.210   1.900  0.0000  0.0000  0.0000
    1GR    C263  263   1.914   2.333   1.900  0.0000  0.0000  0.0000
    1GR    C264  264   2.056   2.333   1.900  0.0000  0.0000  0.0000
    1GR    C265  265   1.702   2.456   1.900  0.0000  0.0000  0.0000
    1GR    C266  266   1.843   2.456   1.900  0.0000  0.0000  0.0000
    1GR    C267  267   1.914   2.579   1.900  0.0000  0.0000  0.0000
    1GR    C268  268   2.056   2.579   1.900  0.0000  0.0000  0.0000
    1GR    C269  269   1.702   2.702   1.900  0.0000  0.0000  0.0000
    1GR    C270  270   1.843   2.702   1.900  0.0000  0.0000  0.0000
    1GR    C271  271   1.914   2.824   1.900  0.0000  0.0000  0.0000
    1GR    C272  272   2.056   2.824   1.900  0.0000  0.0000  0.0000
    1GR    C273  273   1.702   2.947   1.900  0.0000  0.0000  0.0000
    1GR    C274  274   1.843   2.947   1.900  0.0000  0.0000  0.0000
    1GR    C275  275   1.914   3.070   1.900  0.0000  0.0000  0.0000
    1GR    C276  276   2.056   3.070   1.900  0.0000  0.0000  0.0000
    1GR    C277  277   1.702   3.193   1.900  0.0000  0.0000  0.0000
    1GR    C278  278   1.843   3.193   1.900  0.0000  0.0000  0.0000
    1GR    C279  279   1.914   3.316   1.900  0.0000  0.0000  0.0000
    1GR    C280  280   2.056   3.316   1.900  0.0000  0.0000  0.0000
    1GR    C281  281   2.127   3.438   1.900  0.0000  0.0000  0.0000
    1GR    C282  282   2.269   3.438   1.900  0.0000  0.0000  0.0000
    1GR    C283  283   2.340   0.123   1.900  0.0000  0.0000  0.0000
    1GR    C284  284   2.481   0.123   1.900  0.0000  0.0000  0.0000
    1GR    C285  285   2.127   0.246   1.900  0.0000  0.0000  0.0000
    1GR    C286  286   2.269   0.246   1.900  0.0000  0.0000  0.0000
    1GR    C287  287   2.340   0.368   1.900  0.0000  0.0000  0.0000
    1GR    C288  288   2.481   0.368   1.900  0.0000  0.0000  0.0000
    1GR    C289  289   2.127   0.491   1.900  0.0000  0.0000  0.0000
    1GR    C290  290   2.269   0.491   1.900  0.0000  0.0000  0.0000
    1GR    C291  291   2.340   0.614   1.900  0.0000  0.0000  0.0000
    1GR    C292  292   2.481   0.614   1.900  0.0000  0.0000  0.0000
    1GR    C293  293   2.127   0.737   1.900  0.0000  0.0000  0.0000
    1GR    C294  294   2.269   0.737   1.900  0.0000  0.0000  0.0000
    1GR    C295  295   2.340   0.860   1.900  0.0000  0.0000  0.0000
    1GR    C296  296   2.481   0.860   1.900  0.0000  0.0000  0.0000
    1GR    C297  297   2.127   0.982   1.900  0.0000  0.0000  0.0000
    1GR    C298  298   2.269   0.982   1.900  0.0000  0.0000  0.0000
    1GR    C299  299   2.340   1.105   1.900  0.0000  0.0000  0.0000
    1GR    C300  300   2.481   1.105   1.900  0.0000  0.0000  0.0000
    1GR    C301  301   2.127   1.228   1.900  0.0000  0.0000  0.0000
    1GR    C302  302   2.269   1.228   1.900  0.0000  0.0000  0.0000
    1GR    C303  303   2.340   1.351   1.900  0.0000  0.0000  0.0000
    1GR    C304  304   2.481   1.351   1.900  0.0000  0.0000  0.0000
    1GR    C305  305   2.127   1.474   1.900  0.0000  0.0000  0.0000
    1GR    C306  306   2.269   1.474   1.900  0.0000  0.0000  0.0000
    1GR    C307  307   2.340   1.596   1.900  0.0000  0.0000  0.0000
    1GR    C308  308   2.481   1.596   1.900  0.0000  0.0000  0.0000
    1GR    C309  309   2.127   1.719   1.900  0.0000  0.0000  0.0000
    1GR    C310  310   2.269   1.719   1.900  0.0000  0.0000  0.0000
    1GR    C311  311   2.340   1.842   1.900  0.0000  0.0000  0.0000
    1GR    C312  312   2.481   1.842   1.900  0.0000  0.0000  0.0000
    1GR    C313  313   2.127   1.965   1.900  0.0000  0.0000  0.0000
    1GR    C314  314   2.269   1.965   1.900  0.0000  0.0000  0.0000
    1GR    C315  315   2.340   2.088   1.900  0.0000  0.0000  0.0000
    1GR    C316  316   2.481   2.088   1.900  0.0000  0.0000  0.0000
    1GR    C317  317   2.127   2.210   1.900  0.0000  0.0000  0.0000
    1GR    C318  318   2.269   2.210   1.900  0.0000  0.0000  0.0000
    1GR    C319  319   2.340   2.333   1.900  0.0000  0.0000  0.0000
    1GR    C320  320   2.481   2.333   1.900  0.0000  0.0000  0.0000
    1GR    C321  321   2.127   2.456   1.900  0.0000  0.0000  0.0000
    1GR    C322  322   2.269   2.456   1.900  0.0000  0.0000  0.0000
    1GR    C323  323   2.340   2.579   1.900  0.0000  0.0000  0.0000
    1GR    C324  324   2.481   2.579   1.900  0.0000  0.0000  0.0000
    1GR    C325  325   2.127   2.702   1.900  0.0000  0.0000  0.0000
    1GR    C326  326   2.269   2.702   1.900  0.0000  0.0000  0.0000
    1GR    C327  327   2.340   2.824   1.900  0.0000  0.0000  0.0000
    1GR    C328  328   2.481   2.824   1.900  0.0000  0.0000  0.0000
    1GR    C329  329   2.127   2.947   1.900  0.0000  0.0000  0.0000
    1GR    C330  330   2.269   2.947   1.900  0.0000  0.0000  0.0000
    1GR    C331  331   2.340   3.070   1.900  0.0000  0.0000  0.0000
    1GR    C332  332   2.481   3.070   1.900  0.0000  0.0000  0.0000
    1GR    C333  333   2.127   3.193   1.900  0.0000  0.0000  0.0000
    1GR    C334  334   2.269   3.193   1.900  0.0000  0.0000  0.0000
    1GR    C335  335   2.340   3.316   1.900  0.0000  0.0000  0.0000
    1GR    C336  336   2.481   3.316   1.900  0.0000  0.0000  0.0000
    1GR    C337  337   2.552   3.438   1.900  0.0000  0.0000  0.0000
    1GR    C338  338   2.694   0.000   1.900  0.0000  0.0000  0.0000
    1GR    C339  339   2.765   0.123   1.900  0.0000  0.0000  0.0000
    1GR    C340  340   2.907   0.123   1.900  0.0000  0.0000  0.0000
    1GR    C341  341   2.552   0.246   1.900  0.0000  0.0000  0.0000
    1GR    C342  342   2.694   0.246   1.900  0.0000  0.0000  0.0000
    1GR    C343  343   2.765   0.368   1.900  0.0000  0.0000  0.0000
    1GR    C344  344   2.907   0.368   1.900  0.0000  0.0000  0.0000
    1GR    C345  345   2.552   0.491   1.900  0.0000  0.0000  0.0000
    1GR    C346  346   2.694   0.491   1.900  0.0000  0.0000  0.0000
    1GR    C347  347   2.765   0.614   1.900  0.0000  0.0000  0.0000
    1GR    C348  348   2.907   0.614   1.900  0.0000  0.0000  0.0000
    1GR    C349  349   2.552   0.737   1.900  0.0000  0.0000  0.0000
    1GR    C350  350   2.694   0.737   1.900  0.0000  0.0000  0.0000
    1GR    C351  351   2.765   0.860   1.900  0.0000  0.0000  0.0000
    1GR    C352  352   2.907   0.860   1.900  0.0000  0.0000  0.0000
    1GR    C353  353   2.552   0.982   1.900  0.0000  0.0000  0.0000
    1GR    C354  354   2.694   0.982   1.900  0.0000  0.0000  0.0000
    1GR    C355  355   2.765   1.105   1.900  0.0000  0.0000  0.0000
    1GR    C356  356   2.907   1.105   1.900  0.0000  0.0000  0.0000
    1GR    C357  357   2.552   1.228   1.900  0.0000  0.0000  0.0000
    1GR    C358  358   2.694   1.228   1.900  0.0000  0.0000  0.0000
    1GR    C359  359   2.765   1.351   1.900  0.0000  0.0000  0.0000
    1GR    C360  360   2.907   1.351   1.900  0.0000  0.0000  0.0000
    1GR    C361  361   2.552   1.474   1.900  0.0000  0.0000  0.0000
    1GR    C362  362   2.694   1.474   1.900  0.0000  0.0000  0.0000
    1GR    C363  363   2.765   1.596   1.900  0.0000  0.0000  0.0000
    1GR    C364  364   2.907   1.596   1.900  0.0000  0.0000  0.0000
    1GR    C365  365   2.552   1.719   1.900  0.0000  0.0000  0.0000
    1GR    C366  366   2.694   1.719   1.900  0.0000  0.0000  0.0000
    1GR    C367  367   2.765   1.842   1.900  0.0000  0.0000  0.0000
    1GR    C368  368   2.907   1.842   1.900  0.0000  0.0000  0.0000
    1GR    C369  369   2.552   1.965   1.900  0.0000  0.0000  0.0000
    1GR    C370  370   2.694   1.965   1.900  0.0000  0.0000  0.0000
    1GR    C371  371   2.765   2.088   1.900  0.0000  0.0000  0.0000
    1GR    C372  372   2.907   2.088   1.900  0.0000  0.0000  0.0000
    1GR    C373  373   2.552   2.210   1.900  0.0000  0.0000  0.0000
    1GR    C374  374   2.694   2.210   1.900  0.0000  0.0000  0.0000
    1GR    C375  375   2.765   2.333   1.900  0.0000  0.0000  0.0000
    1GR    C376  376   2.907   2.333   1.900  0.0000  0.0000  0.0000
    1GR    C377  377   2.552   2.456   1.900  0.0000  0.0000  0.0000
    1GR    C378  378   2.694   2.456   1.900  0.0000  0.0000  0.0000
    1GR    C379  379   2.765   2.579   1.900  0.0000  0.0000  0.0000
    1GR    C380  380   2.907   2.579   1.900  0.0000  0.0000  0.0000
    1GR    C381  381   2.552   2.702   1.900  0.0000  0.0000  0.0000
    1GR    C382  382   2.694   2.702   1.900  0.0000  0.0000  0.0000
    1GR    C383  383   2.765   2.824   1.900  0.0000  0.0000  0.0000
    1GR    C384  384   2.907   2.824   1.900  0.0000  0.0000  0.0000
    1GR    C385  385   2.552   2.947   1.900  0.0000  0.0000  0.0000
    1GR    C386  386   2.694   2.947   1.900  0.0000  0.0000  0.0000
    1GR    C387  387   2.765   3.070   1.900  0.0000  0.0000  0.0000
    1GR    C388  388   2.907   3.070   1.900  0.0000  0.0000  0.0000
    1GR    C389  389   2.552   3.193   1.900  0.0000  0.0000  0.0000
    1GR    C390  390   2.694   3.193   1.900  0.0000  0.0000  0.0000
    1GR    C391  391   2.765   3.316   1.900  0.0000  0.0000  0.0000
    1GR    C392  392   2.907   3.316   1.900  0.0000  0.0000  0.0000
    1GR    C393  393   2.978   0.000   1.900  0.0000  0.0000  0.0000
    1GR    C394  394   3.120   0.000   1.900  0.0000  0.0000  0.0000
    1GR    C395  395   3.191   0.123   1.900  0.0000  0.0000  0.0000
    1GR    C396  396   3.332   0.123   1.900  0.0000  0.0000  0.0000
    1GR    C397  397   2.978   0.246   1.900  0.0000  0.0000  0.0000
    1GR    C398  398   3.120   0.246   1.900  0.0000  0.0000  0.0000
    1GR    C399  399   3.191   0.368   1.900  0.0000  0.0000  0.0000
    1GR    C400  400   3.332   0.368   1.900  0.0000  0.0000  0.0000
    1GR    C401  401   2.978   0.491   1.900  0.0000  0.0000  0.0000
    1GR    C402  402   3.120   0.491   1.900  0.0000  0.0000  0.0000
    1GR    C403  403   3.191   0.614   1.900  0.0000  0.0000  0.0000
    1GR    C404  404   3.332   0.614   1.900  0.0000  0.0000  0.0000
    1GR    C405  405   2.978   0.737   1.900  0.0000  0.0000  0.0000
    1GR    C406  406   3.120   0.737   1.900  0.0000  0.0000  0.0000
    1GR    C407  407   3.191   0.860   1.900  0.0000  0.0000  0.0000
    1GR    C408  408   3.332   0.860   1.900  0.0000  0.0000  0.0000
    1GR    C409  409   2.978   0.982   1.900  0.0000  0.0000  0.0000
    1GR    C410  410   3.120   0.982   1.900  0.0000  0.0000  0.0000
    1GR    C411  411   3.191   1.105   1.900  0.0000  0.0000  0.0000
    1GR    C412  412   3.332   1.105   1.900  0.0000  0.0000  0.0000
    1GR    C413  413   2.978   1.228   1.900  0.0000  0.0000  0.0000
    1GR    C414  414   3.120   1.228   1.900  0.0000  0.0000  0.0000
    1GR    C415  415   3.191   1.351   1.900  0.0000  0.0000  0.0000
    1GR    C416  416   3.332   1.351   1.900  0.0000  0.0000  0.0000
    1GR    C417  417   2.978   1.474   1.900  0.0000  0.0000  0.0000
    1GR    C418  418   3.120   1.474   1.900  0.0000  0.0000  0.0000
    1GR    C419  419   3.191   1.596   1.900  0.0000  0.0000  0.0000
    1GR    C420  420   3.332   1.596   1.900  0.0000  0.0000  0.0000
    1GR    C421  421   2.978   1.719   1.900  0.0000  0.0000  0.0000
    1GR    C422  422   3.120   1.719   1.900  0.0000  0.0000  0.0000
    1GR    C423  423   3.191   1.842   1.900  0.0000  0.0000  0.0000
    1GR    C424  424   3.332   1.842   1.900  0.0000  0.0000  0.0000
    1GR    C425  425   2.978   1.965   1.900  0.0000  0.0000  0.0000
    1GR    C426  426   3.120   1.965   1.900  0.0000  0.0000  0.0000
    1GR    C427  427   3.191   2.088   1.900  0.0000  0.0000  0.0000
    1GR    C428  428   3.332   2.088   1.900  0.0000  0.0000  0.0000
    1GR    C429  429   2.978   2.210   1.900  0.0000  0.0000  0.0000
    1GR    C430  430   3.120   2.210   1.900  0.0000  0.0000  0.0000
    1GR    C431  431   3.191   2.333   1.900  0.0000  0.0000  0.0000
    1GR    C432  432   3.332   2.333   1.900  0.0000  0.0000  0.0000
    1GR    C433  433   2.978   2.456   1.900  0.0000  0.0000  0.0000
    1GR    C434  434   3.120   2.456   1.900  0.0000  0.0000  0.0000
    1GR    C435  435   3.191   2.579   1.900  0.0000  0.0000  0.0000
    1GR    C436  436   3.332   2.579   1.900  0.0000  0.0000  0.0000
    1GR    C437  437   2.978   2.702   1.900  0.0000  0.0000  0.0000
    1GR    C438  438   3.120   2.702   1.900  0.0000  0.0000  0.0000
    1GR    C439  439   3.191   2.824   1.900  0.0000  0.0000  0.0000
    1GR    C440  440   3.332   2.824   1.900  0.0000  0.0000  0.0000
    1GR    C441  441   2.978   2.947   1.900  0.0000  0.0000  0.0000
    1GR    C442  442   3.120   2.947   1.900  0.0000  0.0000  0.0000
    1GR    C443  443   3.191   3.070   1.900  0.0000  0.0000  0.0000
    1GR    C444  444   3.332   3.070   1.900  0.0000  0.0000  0.0000
    1GR    C445  445   2.978   3.193   1.900  0.0000  0.0000  0.0000
    1GR    C446  446   3.120   3.193   1.900  0.0000  0.0000  0.0000
    1GR    C447  447   3.191   3.316   1.900  0.0000  0.0000  0.0000
    1GR    C448  448   3.332   3.316   1.900  0.0000  0.0000  0.0000
    2PMMA   CX1  449   2.971   1.657   2.701  0.0269  0.3490  0.0671
    2PMMA   CA2  450   3.035   1.526   2.759 -0.4119  0.2392  0.8573
    2PMMA   CX3  451   3.170   1.500   2.679 -0.0911  0.4567 -0.0270
    2PMMA    C4  452   3.054   1.560   2.902  0.3162 -0.0158  0.3139
    2PMMA    O5  453   2.968   1.549   2.983 -0.0277  0.1128 -0.0912
    2PMMA   OS6  454   3.187   1.567   2.942  0.8855  0.0945  0.0643
    2PMMA   CE7  455   3.228   1.611   3.064  0.4317 -0.0990 -0.2705
    2PMMA   CX8  456   2.929   1.407   2.744  0.1952 -0.6767  0.9169
    2PMMA   CA9  457   2.973   1.259   2.760  0.1286 -1.0125  0.7415
    2PMMA  CX10  458   3.051   1.207   2.641  0.4377  0.7018 -0.4814
    2PMMA   C11  459   2.834   1.199   2.749 -0.1241  0.1939 -0.0721
    2PMMA   O12  460   2.788   1.159   2.646 -0.2947  0.3731 -0.6449
    2PMMA  OS13  461   2.765   1.201   2.867  0.0851 -0.4761  0.1749
    2PMMA  CE14  462   2.637   1.141   2.870 -0.4820  0.1248 -0.4073
    2PMMA  CX15  463   3.051   1.231   2.892 -0.5284 -0.4708  0.0808
    2PMMA  CA16  464   3.100   1.082   2.930  0.2310  0.4607 -0.3435
    2PMMA  CX17  465   3.148   1.103   3.081  0.2305  0.2425 -0.4453
    2PMMA   C18  466   2.981   0.987   2.943 -0.4893 -0.1386  0.0891
    2PMMA   O19  467   2.911   0.974   3.043 -0.1516 -0.0989  0.0027
    2PMMA  OS20  468   2.975   0.908   2.832 -0.0600 -0.5287 -0.4454
    2PMMA  CE21  469   2.897   0.791   2.844  0.1544 -0.4286 -0.3314
    2PMMA  CX22  470   3.223   1.030   2.842  0.1828 -0.7499  0.4605
    2PMMA  CA23  471   3.319   0.917   2.891  0.2276 -0.5671  0.5454
    2PMMA  CX24  472   3.239   0.790   2.931 -0.4189  0.1253  0.2461
    2PMMA   C25  473   3.408   0.966   3.006  0.4353 -0.8739 -0.0817
    2PMMA   O26  474   3.464   1.075   3.000 -0.9367 -0.2211  0.3031
    2PMMA  OS27  475   3.410   0.883   3.117  0.0683  0.5188  0.4288
    2PMMA  CE28  476   3.497   0.919   3.224  0.1694  0.2003 -0.1306
    2PMMA  CX29  477   3.425   0.875   2.781 -0.5573  0.3769  0.4563
    2PMMA  HC30  478   2.868   1.663   2.736  0.2043 -1.1417  0.9031
    2PMMA  HC31  479   3.018   1.752   2.729  2.2069 -0.9072  0.7973
    2PMMA  HC32  480   2.969   1.645   2.592 -1.4873  0.0032  0.1269
    2PMMA  HC33  481   3.227   1.424   2.734 -0.3295  0.5307  0.3272
    2PMMA  HC34  482   3.232   1.590   2.672  0.7872 -0.1171  0.1961
    2PMMA  HC35  483   3.154   1.465   2.577  3.1777 -0.8011 -0.1792
    2PMMA  H136  484   3.238   1.719   3.077  1.4525 -0.3689  1.4236
    2PMMA  H137  485   3.322   1.556   3.072  1.6705  1.2969 -4.0725
    2PMMA  H138  486   3.159   1.570   3.139 -2.0461  0.8762 -1.9493
    2PMMA  HC39  487   2.842   1.422   2.809  1.1779 -2.0933  2.6215
    2PMMA  HC40  488   2.878   1.414   2.648  0.3323  1.4873  0.9614
    2PMMA  HC41  489   3.022   1.259   2.549 -0.7491 -1.2459 -1.2396
    2PMMA  HC42  490   3.159   1.227   2.648  0.4049  1.0873 -1.0194
    2PMMA  HC43  491   3.040   1.099   2.633  2.5186  0.5780 -2.1127
    2PMMA  H144  492   2.567   1.200   2.810 -0.8833  2.0677  1.8566
    2PMMA  H145  493   2.599   1.142   2.973 -0.4553 -0.0463 -0.3955
    2PMMA  H146  494   2.647   1.038   2.837  0.8681  0.2184 -0.3017
    2PMMA  HC47  495   3.142   1.292   2.891  0.3283 -1.6954  0.8100
    2PMMA  HC48  496   3.002   1.280   2.976  0.9561 -0.7486  1.1290
    2PMMA  HC49  497   3.231   1.174   3.088  2.1486 -1.9801 -0.1027
    2PMMA  HC50  498   3.175   1.004   3.120 -0.5542  0.3492  0.3922
    2PMMA  HC51  499   3.075   1.142   3.153 -0.2569 -1.6304  0.1122
    2PMMA  H152  500   2.792   0.821   2.847  1.1066  3.3897 -1.6517
    2PMMA  H153  501   2.925   0.730   2.930  0.2257 -1.1230 -0.8499
    2PMMA  H154  502   2.902   0.723   2.759  2.2290  0.3572 -0.8506
    2PMMA  HC55  503   3.190   1.006   2.740 -0.8694 -1.1031  0.8808
    2PMMA  HC56  504   3.287   1.118   2.830 -1.1285  0.3969  1.7823
    2PMMA  HC57  505   3.188   0.745   2.846 -1.0438  0.3579  0.4993
    2PMMA  HC58  506   3.305   0.715   2.976 -3.6223 -2.7894  0.2163
    2PMMA  HC59  507   3.169   0.801   3.014 -1.0828  1.9213 -0.5251
    2PMMA  H160  508   3.464   0.869   3.315 -0.6516  3.8375  1.6941
    2PMMA  H161  509   3.492   1.026   3.248  2.3151  0.0156  1.2608
    2PMMA  H162  510   3.599   0.890   3.201  0.9397  1.9836  0.9496
    2PMMA  HC63  511   3.461   0.963   2.728  0.7182 -0.8039 -0.6615
    2PMMA  HC64  512   3.510   0.816   2.818  0.3249  1.2486 -0.1680
    2PMMA  HC65  513   3.380   0.810   2.705  2.3806 -0.3966 -0.6660
    3HFI     O1  514   2.481   1.047   0.571  0.4171 -0.4955 -0.4258
    3HFI     C1  515   2.620   1.037   0.514 -0.4698 -0.2811  0.0470
    3HFI     C2  516   2.729   1.006   0.617  0.2124  0.0671 -0.0445
    3HFI     F1  517   2.850   1.000   0.556  0.2252  0.3414  0.0733
    3HFI     F2  518   2.709   0.883   0.665 -0.3165 -0.1419  0.0982
    3HFI     F3  519   2.740   1.087   0.727  0.2031  0.4299 -0.7122
    3HFI     C3  520   2.653   1.172   0.432  0.0381 -0.9402 -0.3770
    3HFI     F4  521   2.551   1.186   0.343  0.3431 -0.2854  0.2977
    3HFI     F5  522   2.770   1.159   0.359 -0.2963  0.2590 -0.5617
    3HFI     F6  523   2.660   1.276   0.511 -0.3419 -0.5226  0.3129
    3HFI     H1  524   2.487   1.094   0.656 -0.1654 -1.6125  0.2373
    3HFI     H2  525   2.629   0.957   0.439  1.2276 -0.7701  0.7294
    4HFI     O1  526   1.998   1.564   0.935  1.1183  0.1749 -0.1844
    4HFI     C1  527   1.980   1.684   1.007  0.6531 -0.0342  0.0948
    4HFI     C2  528   1.898   1.796   0.932  0.4274 -0.3682  0.2827
    4HFI     F1  529   1.982   1.878   0.858  0.2305 -0.7405 -0.2391
    4HFI     F2  530   1.841   1.879   1.025  0.5687  0.5449  0.0224
    4HFI     F3  531   1.808   1.736   0.846 -0.5760 -0.3237 -0.1211
    4HFI     C3  532   2.114   1.739   1.071 -0.1620  0.0260  0.3016
    4HFI     F4  533   2.093   1.846   1.154  0.2520 -0.1964  0.4681
    4HFI     F5  534   2.211   1.760   0.976 -0.0386  0.5665  0.0058
    4HFI     F6  535   2.169   1.642   1.153  0.0921  0.2169 -0.2792
    4HFI     H1  536   2.037   1.494   0.990 -1.4886 -2.2295 -1.2793
    4HFI     H2  537   1.917   1.656   1.093  0.1370 -0.5184 -0.4402
    5HFI     O1  538   2.371   0.850   0.096  0.3949  0.2909 -0.1605
    5HFI     C1  539   2.386   0.992   0.076  0.1858 -0.8841  0.4655
    5HFI     C2  540   2.277   1.078   0.164  0.5877  0.9611 -0.2008
    5HFI     F1  541   2.298   1.210   0.160 -0.1920 -0.1293  0.3033
    5HFI     F2  542   2.278   1.033   0.293 -0.4018 -0.0463 -0.2416
    5HFI     F3  543   2.155   1.063   0.121  0.1623  0.0154  0.9213
    5HFI     C3  544   2.376   1.016  -0.078  0.1172  0.0549 -0.4025
    5HFI     F4  545   2.260   0.966  -0.129  0.5046 -0.6840  0.1007
    5HFI     F5  546   2.474   0.953  -0.147  0.4134  0.3650 -0.2987
    5HFI     F6  547   2.389   1.147  -0.106 -0.1614 -0.0631 -0.6526
    5HFI     H1  548   2.278   0.836   0.074  0.2460  0.2844  0.4641
    5HFI     H2  549   2.483   1.031   0.108 -0.6846  0.2447  1.7573
    6HFI     O1  550   0.544   0.730   0.100 -0.1037  0.1199 -0.0655
    6HFI     C1  551   0.631   0.605   0.101 -0.1941 -0.5414 -0.2024
    6HFI     C2  552   0.767   0.634   0.048  0.0824 -0.2330  0.5301
    6HFI     F1  553   0.762   0.675  -0.085 -0.2099 -0.3591  0.3459
    6HFI     F2  554   0.843   0.525   0.058  0.0763 -0.0082  0.1460
    6HFI     F3  555   0.825   0.728   0.120  0.1822 -0.0142  0.3945
    6HFI     C3  556   0.559   0.484   0.030  0.0729 -1.1377 -0.7587
    6HFI     F4  557   0.564   0.499  -0.103  0.1289  0.0751  0.9139
    6HFI     F5  558   0.432   0.474   0.062 -0.5394 -0.0106  0.1206
    6HFI     F6  559   0.617   0.371   0.057  0.3352 -0.1192 -0.3915
    6HFI     H1  560   0.583   0.799   0.156  0.3334  0.3851 -0.6824
    6HFI     H2  561   0.635   0.568   0.205  0.9866 -0.2515 -0.1365
    7HFI     O1  562   2.024   2.331   0.465  0.1243  0.2230  0.0376
    7HFI     C1  563   1.884   2.362   0.512  0.0045 -0.3538  0.5318
    7HFI     C2  564   1.857   2.511   0.488  0.1488 -0.4259 -0.1357
    7HFI     F1  565   1.720   2.537   0.487 -0.1345 -0.1661  0.1454
    7HFI     F2  566   1.889   2.552   0.358  0.3201  0.5092 -0.1288
    7HFI     F3  567   1.920   2.597   0.570  0.2639  0.1074  0.0838
    7HFI     C3  568   1.852   2.310   0.658  0.5151 -0.8921  0.3087
    7HFI     F4  569   1.906   2.388   0.758 -0.2539 -0.2225 -0.7377
    7HFI     F5  570   1.905   2.185   0.679 -0.0298 -0.5462  0.0576
    7HFI     F6  571   1.717   2.298   0.674 -0.6193  0.1107 -0.3584
    7HFI     H1  572   2.080   2.410   0.474  0.1034  0.1869  0.5017
    7HFI     H2  573   1.806   2.311   0.453 -0.2343 -1.1910  1.5369
    8HFI     O1  574   1.192   2.186   1.577 -0.2404  0.5821  0.0896
    8HFI     C1  575   1.131   2.286   1.487  0.3572  0.1401  0.2104
    8HFI     C2  576   1.195   2.427   1.502  0.2380 -0.0400  0.0431
    8HFI     F1  577   1.136   2.490   1.595  0.2198 -0.6436 -0.3280
    8HFI     F2  578   1.182   2.502   1.391  0.5542 -0.5659 -0.6438
    8HFI     F3  579   1.324   2.422   1.533 -0.1332 -0.0438 -0.6173
    8HFI     C3  580   0.976   2.288   1.489 -0.1500  0.5488 -0.1057
    8HFI     F4  581   0.935   2.165   1.441  0.3243 -0.0151 -0.4199
    8HFI     F5  582   0.918   2.376   1.409 -0.0920  0.1072  0.3187
    8HFI     F6  583   0.922   2.294   1.613  0.0610  0.3018  0.3305
    8HFI     H1  584   1.155   2.189   1.667 -0.4022  0.1871  0.0354
    8HFI     H2  585   1.152   2.252   1.384 -3.2291 -3.0432  0.4051
    9HFI     O1  586   1.588   3.111   1.332 -0.0066 -0.4305 -0.6469
    9HFI     C1  587   1.473   3.077   1.415  0.2431 -0.4509  0.3746
    9HFI     C2  588   1.419   3.201   1.491  0.4560  0.8782  0.5079
    9HFI     F1  589   1.516   3.244   1.571 -0.1502  0.0515 -0.5438
    9HFI     F2  590   1.317   3.162   1.567  0.1207 -0.2112  0.1309
    9HFI     F3  591   1.383   3.304   1.414 -0.1809  0.3221  0.2696
    9HFI     C3  592   1.505   2.956   1.506 -0.8497 -0.1663  0.3101
    9HFI     F4  593   1.599   2.992   1.597  0.1885 -0.1840 -0.0157
    9HFI     F5  594   1.552   2.855   1.437 -0.6032  1.0257 -0.5344
    9HFI     F6  595   1.394   2.911   1.569  0.3412 -0.4417  0.0225
    9HFI     H1  596   1.658   3.122   1.399 -0.1339  0.9317 -0.7309
    9HFI     H2  597   1.393   3.044   1.348  0.4093  1.0310 -0.5733
   10HFI     O1  598   1.613   2.271   0.972  0.3412  0.1760  0.2044
   10HFI     C1  599   1.527   2.198   1.062  0.9472  0.2632  0.0187
   10HFI     C2  600   1.414   2.124   0.973  0.4469 -0.2262  0.7114
   10HFI     F1  601   1.354   2.207   0.882 -0.4027 -0.6951 -0.3266
   10HFI     F2  602   1.319   2.062   1.045 -0.1093 -0.5790 -0.0816
   10HFI     F3  603   1.467   2.026   0.907 -0.7618  0.1485  0.2906
   10HFI     C3  604   1.465   2.289   1.166  0.2168  0.0072 -0.5764
   10HFI     F4  605   1.394   2.382   1.106  0.4025 -0.0210 -0.1027
   10HFI     F5  606   1.560   2.350   1.236 -0.2915  0.0628  0.2258
   10HFI     F6  607   1.383   2.232   1.257 -0.3007 -0.1898 -0.5152
   10HFI     H1  608   1.576   2.360   0.958 -0.3092  0.1137  1.4181
   10HFI     H2  609   1.586   2.125   1.119 -0.8859  0.3952  2.1080
   11HFI     O1  610   0.187   0.314   0.596  0.1012  0.3212 -0.1933
   11HFI     C1  611   0.264   0.360   0.481  0.6457 -0.0059  0.2769
   11HFI     C2  612   0.376   0.271   0.435 -0.2112 -0.2470  0.9081
   11HFI     F1  613   0.328   0.170   0.364 -0.1723 -0.1371 -0.3630
   11HFI     F2  614   0.445   0.212   0.536 -0.4156  0.5691 -0.0180
   11HFI     F3  615   0.463   0.334   0.354 -0.3299 -0.2160 -0.6852
   11HFI     C3  616   0.312   0.509   0.514  0.7422 -0.6983  0.6572
   11HFI     F4  617   0.316   0.573   0.392  0.0560 -0.2189  0.1302
   11HFI     F5  618   0.435   0.509   0.566  0.1270  0.1456  0.2492
   11HFI     F6  619   0.230   0.584   0.591 -0.3758  0.2858 -0.4008
   11HFI     H1  620   0.169   0.392   0.651 -0.4618  1.3958 -1.8728
   11HFI     H2  621   0.197   0.377   0.395  1.8023 -0.7842 -0.8009
   12HFI     O1  622   1.041   1.540   0.416 -1.0577 -0.1003 -0.2646
   12HFI     C1  623   1.079   1.676   0.366  0.3428 -0.2301  0.0224
   12HFI     C2  624   1.015   1.790   0.446  0.6880 -0.0628  0.2848
   12HFI     F1  625   1.032   1.918   0.397 -0.5049 -0.0638  0.4394
   12HFI     F2  626   1.051   1.803   0.572  0.3091 -1.1010 -0.3114
   12HFI     F3  627   0.883   1.772   0.448  0.6638  0.3486 -0.0957
   12HFI     C3  628   1.040   1.679   0.216  0.0444  0.3958 -0.2056
   12HFI     F4  629   1.103   1.580   0.148  0.0165 -0.6120 -0.1669
   12HFI     F5  630   1.079   1.796   0.157  0.1796 -0.1758 -0.5772
   12HFI     F6  631   0.906   1.667   0.192 -0.0967  0.0788 -0.0299
   12HFI     H1  632   0.948   1.547   0.443 -0.3371  2.2695  1.7378
   12HFI     H2  633   1.188   1.688   0.360  0.5667 -0.8163  2.3529
   13HFI     O1  634   2.510   1.842   0.173  0.4681 -0.3856 -0.6006
   13HFI     C1  635   2.620   1.828   0.264 -0.3630 -0.0755  0.4731
   13HFI     C2  636   2.752   1.862   0.205 -0.1489  0.2766 -0.4396
   13HFI     F1  637   2.769   1.995   0.177  0.1841  0.1240 -0.3337
   13HFI     F2  638   2.761   1.794   0.086  0.2472 -0.3117  0.3387
   13HFI     F3  639   2.860   1.819   0.283  0.6580  0.9187 -0.3609
   13HFI     C3  640   2.615   1.689   0.329  0.7638  0.2050 -0.6356
   13HFI     F4  641   2.487   1.661   0.366  0.0169 -0.0992  0.0130
   13HFI     F5  642   2.689   1.683   0.436 -0.0095 -0.4293  0.0754
   13HFI     F6  643   2.654   1.586   0.245  0.0579 -0.6054  0.4333
   13HFI     H1  644   2.443   1.775   0.196  1.1375 -0.6177  0.7794
   13HFI     H2  645   2.613   1.908   0.339 -0.9799  0.8402 -0.5524
   14HFI     O1  646   1.996   3.111   0.881 -0.3174  1.3815  0.0355
   14HFI     C1  647   2.074   3.036   0.978  0.3979 -0.5794 -0.0369
   14HFI     C2  648   1.993   2.954   1.069 -0.2133 -0.3927 -0.3901
   14HFI     F1  649   1.875   2.934   1.010  0.3031 -0.5746  0.1089
   14HFI     F2  650   1.978   3.011   1.192  0.1231  0.3835  0.3020
   14HFI     F3  651   2.056   2.833   1.095  0.6764 -0.2545 -0.9143
   14HFI     C3  652   2.188   3.122   1.047 -0.0528 -0.2771 -0.1067
   14HFI     F4  653   2.270   3.049   1.120 -0.5190  0.2566  0.1277
   14HFI     F5  654   2.139   3.216   1.132 -0.2847  0.2709 -0.2248
   14HFI     F6  655   2.258   3.177   0.949 -0.0705 -0.0903 -0.3345
   14HFI     H1  656   1.987   3.201   0.918 -2.3315  1.5524 -0.8261
   14HFI     H2  657   2.136   2.959   0.930  1.3562  0.1494  0.0280
   15HFI     O1  658   1.371   1.869   1.599  0.1421 -0.0367  0.2519
   15HFI     C1  659   1.482   1.877   1.512  0.4439  0.5256  0.2158
   15HFI     C2  660   1.550   2.019   1.503 -0.4570 -0.0108  0.4580
   15HFI     F1  661   1.658   2.015   1.585 -0.1809 -0.1869 -0.2898
   15HFI     F2  662   1.461   2.117   1.548 -0.4269  0.0626 -0.5221
   15HFI     F3  663   1.593   2.051   1.383  0.3541 -0.0070  0.4465
   15HFI     C3  664   1.442   1.823   1.373  0.5371  0.9081  0.8287
   15HFI     F4  665   1.372   1.918   1.307  0.1545  0.2276 -0.2869
   15HFI     F5  666   1.364   1.714   1.389 -0.3635  0.1671  1.2294
   15HFI     F6  667   1.557   1.780   1.306 -0.1338  0.6624 -0.0153
   15HFI     H1  668   1.350   1.951   1.647  2.2564  0.4908  0.2960
   15HFI     H2  669   1.557   1.802   1.544  0.5777  0.6528  0.1992
   16HFI     O1  670   2.067   1.884   0.588 -0.5032 -0.6851  0.0703
   16HFI     C1  671   2.140   1.989   0.510  0.1568 -0.3988 -0.3632
   16HFI     C2  672   2.143   1.951   0.363 -0.2743 -0.3830 -0.2485
   16HFI     F1  673   2.028   1.907   0.317 -0.6382 -0.9778 -0.0438
   16HFI     F2  674   2.230   1.849   0.352 -0.0360  0.2224  0.4742
   16HFI     F3  675   2.184   2.046   0.276  0.2946 -0.5971 -0.7041
   16HFI     C3  676   2.283   2.022   0.567 -0.0730 -0.3202 -0.3388
   16HFI     F4  677   2.365   2.095   0.491 -0.0930  0.3022 -0.0004
   16HFI     F5  678   2.355   1.907   0.608  0.3826  0.6511 -0.3787
   16HFI     F6  679   2.261   2.101   0.672  0.1018  0.3093 -0.2390
   16HFI     H1  680   2.065   1.910   0.682  1.8785 -2.1461  0.5504
   16HFI     H2  681   2.073   2.076   0.516  0.1753 -0.4697  1.0370
   17HFI     O1  682   0.511   2.613   1.283 -0.8148  0.3017 -0.5703
   17HFI     C1  683   0.447   2.550   1.398  0.4275 -0.5119  0.1141
   17HFI     C2  684   0.366   2.650   1.480 -0.6503 -0.8202 -0.4364
   17HFI     F1  685   0.290   2.597   1.571  0.4391 -0.2606  0.2597
   17HFI     F2  686   0.291   2.721   1.406  0.2482  0.2267 -0.3261
   17HFI     F3  687   0.450   2.739   1.550  0.2209  0.0502  0.6018
   17HFI     C3  688   0.547   2.470   1.480 -0.4088  0.2355 -0.2830
   17HFI     F4  689   0.491   2.384   1.575  0.0596 -0.5641  0.4310
   17HFI     F5  690   0.638   2.552   1.546 -0.4903 -0.3930 -0.2075
   17HFI     F6  691   0.614   2.395   1.393 -0.0397  0.0010  0.3311
   17HFI     H1  692   0.568   2.683   1.320 -0.8138 -0.2714  0.5096
   17HFI     H2  693   0.374   2.476   1.365 -1.5323  0.6165  1.7828
   18HFI     O1  694   0.583   0.964   0.257  0.1637 -0.6366  0.3694
   18HFI     C1  695   0.480   1.031   0.329  0.4416  0.1012 -0.2904
   18HFI     C2  696   0.525   1.186   0.351 -0.2966 -0.2893  0.1129
   18HFI     F1  697   0.640   1.199   0.415  0.1516 -0.4039 -0.4492
   18HFI     F2  698   0.425   1.259   0.417  0.4597  0.6206 -0.0931
   18HFI     F3  699   0.546   1.250   0.232  0.8937 -0.0581 -0.0247
   18HFI     C3  700   0.444   0.953   0.461 -0.1049  0.3882 -0.5975
   18HFI     F4  701   0.336   0.997   0.521 -0.2531 -0.6100 -0.1597
   18HFI     F5  702   0.546   0.962   0.552  0.3967  0.1024 -0.0278
   18HFI     F6  703   0.429   0.820   0.439  0.0358 -0.0776  0.0763
   18HFI     H1  704   0.663   1.012   0.281  1.7209 -3.4854  1.0924
   18HFI     H2  705   0.386   1.036   0.272  1.2685  0.8401 -1.6209
   19HFI     O1  706   3.024   1.218   1.149  0.5197 -0.0597 -0.3373
   19HFI     C1  707   3.062   1.104   1.072  0.6421  0.2139  0.1640
   19HFI     C2  708   3.201   1.047   1.108  0.0041 -0.1900 -0.0358
   19HFI     F1  709   3.242   0.935   1.038 -0.2142 -0.1951  0.5441
   19HFI     F2  710   3.194   1.012   1.236 -0.5629  0.1659  0.0780
   19HFI     F3  711   3.294   1.141   1.088 -0.1553  0.1083  0.6035
   19HFI     C3  712   3.045   1.139   0.925  0.2729  0.0704  0.0049
   19HFI     F4  713   2.933   1.209   0.905 -0.5892  0.2639  0.3513
   19HFI     F5  714   3.039   1.022   0.846 -0.0988  0.5456 -0.5023
   19HFI     F6  715   3.149   1.207   0.876 -0.0693 -0.3333  0.5117
   19HFI     H1  716   2.989   1.287   1.090  0.9522 -1.5429 -2.4053
   19HFI     H2  717   2.992   1.022   1.091  1.6018 -1.5673 -3.4020
   20HFI     O1  718   1.116   0.295   1.604  0.6370 -0.0010  0.3848
   20HFI     C1  719   1.024   0.231   1.503  0.3060 -0.0357  0.0936
   20HFI     C2  720   1.032   0.069   1.516  0.4415 -0.5388  0.1734
   20HFI     F1  721   0.986   0.010   1.397 -0.4878  0.2444  0.0516
   20HFI     F2  722   0.953   0.025   1.619 -0.2441 -0.3506 -0.0214
   20HFI     F3  723   1.164   0.035   1.540  0.2311 -0.3408 -0.6994
   20HFI     C3  724   1.041   0.284   1.362  0.5319 -0.8930 -0.3693
   20HFI     F4  725   0.925   0.272   1.292 -0.5096  0.2348 -0.3108
   20HFI     F5  726   1.140   0.219   1.297  0.7852 -0.0455 -0.1464
   20HFI     F6  727   1.082   0.421   1.361  0.7847 -0.3310  0.5173
   20HFI     H1  728   1.207   0.281   1.574  0.6549  1.3888 -0.2557
   20HFI     H2  729   0.918   0.257   1.516 -0.4600 -2.7720 -0.3502
   21HFI     O1  730   2.642   0.484   0.666  0.4125 -0.2021 -0.5560
   21HFI     C1  731   2.734   0.404   0.578 -0.5656 -0.5473  0.3489
   21HFI     C2  732   2.686   0.259   0.577  1.1657 -0.5746 -0.7443
   21HFI     F1  733   2.708   0.187   0.459  0.2786 -0.0222  0.5769
   21HFI     F2  734   2.551   0.255   0.603  0.0534 -0.2342  0.5968
   21HFI     F3  735   2.747   0.191   0.667 -0.2909 -0.5003 -0.1216
   21HFI     C3  736   2.884   0.434   0.599 -0.0115 -0.2722  1.0243
   21HFI     F4  737   2.925   0.414   0.723 -0.0210 -0.2183  0.0704
   21HFI     F5  738   2.912   0.560   0.563  0.1246 -0.1805 -0.0333
   21HFI     F6  739   2.954   0.359   0.510 -0.3373 -0.3606 -0.0290
   21HFI     H1  740   2.694   0.507   0.745  2.9367 -0.6289 -2.0605
   21HFI     H2  741   2.712   0.451   0.482 -1.5970 -0.5094  0.6016
   22HFI     O1  742   2.282   2.217   3.563 -0.3655  0.0665 -0.5767
   22HFI     C1  743   2.330   2.319   3.662 -0.3974  0.9388  0.0820
   22HFI     C2  744   2.342   2.233   3.794  0.7939  0.1253 -0.1187
   22HFI     F1  745   2.220   2.179   3.833 -0.0267 -0.1302  0.4145
   22HFI     F2  746   2.384   2.309   3.888 -0.0573 -0.2086 -0.7739
   22HFI     F3  747   2.431   2.127   3.786 -0.0915 -0.1958  0.0538
   22HFI     C3  748   2.243   2.449   3.661  0.0364 -0.1075 -0.7232
   22HFI     F4  749   2.243   2.510   3.542  0.2057 -0.0160 -0.5060
   22HFI     F5  750   2.276   2.536   3.753 -0.0286  0.0356  0.0967
   22HFI     F6  751   2.110   2.421   3.678  0.0481 -0.2332 -0.1967
   22HFI     H1  752   2.200   2.243   3.519  0.2735  2.3865 -0.4620
   22HFI     H2  753   2.427   2.345   3.617 -1.2246  1.3464 -1.5316
   23HFI     O1  754   0.439   0.855   1.339 -0.2762  0.4004  0.2486
   23HFI     C1  755   0.562   0.937   1.370 -0.0905 -0.0385  1.0160
   23HFI     C2  756   0.565   0.959   1.529  0.4232 -0.3192 -0.2200
   23HFI     F1  757   0.452   1.013   1.575 -0.2346 -0.1552  0.3127
   23HFI     F2  758   0.668   1.031   1.572  0.2918 -0.2131 -0.1804
   23HFI     F3  759   0.578   0.834   1.591  0.0398  0.5751 -0.1058
   23HFI     C3  760   0.573   1.066   1.287 -0.5465 -0.4735 -0.4327
   23HFI     F4  761   0.685   1.132   1.320  0.0442 -0.2893  0.4167
   23HFI     F5  762   0.462   1.147   1.308  0.0636 -0.2632  0.2033
   23HFI     F6  763   0.582   1.034   1.157  0.0711 -0.2819  0.3750
   23HFI     H1  764   0.360   0.912   1.333 -0.2495  0.2377 -2.2101
   23HFI     H2  765   0.650   0.874   1.356  0.5835  1.0403  0.3128
   24HFI     O1  766   0.359   0.026   0.813  0.0391 -0.8118 -0.3879
   24HFI     C1  767   0.339  -0.081   0.915  0.1157 -0.5009 -0.2933
   24HFI     C2  768   0.187  -0.088   0.966 -0.4851  0.1910 -0.0520
   24HFI     F1  769   0.134   0.039   0.982 -0.3300 -0.0981  0.7629
   24HFI     F2  770   0.173  -0.153   1.085  0.7527  0.3664 -0.0787
   24HFI     F3  771   0.112  -0.150   0.876  0.1575  0.2356 -0.3810
   24HFI     C3  772   0.446  -0.066   1.030  0.5465 -0.3478  0.1913
   24HFI     F4  773   0.456  -0.186   1.083  0.2960 -0.2314 -0.3714
   24HFI     F5  774   0.408   0.028   1.123  0.5105 -0.3400  0.0822
   24HFI     F6  775   0.567  -0.027   0.989 -0.0685  0.3879  0.0667
   24HFI     H1  776   0.306   0.007   0.733  0.1173 -0.0296 -0.6257
   24HFI     H2  777   0.349  -0.179   0.866 -2.0435 -0.8010 -0.1450
   25HFI     O1  778   0.576   2.631   0.500  0.8643  0.1918 -0.5932
   25HFI     C1  779   0.474   2.736   0.518  0.1189  0.2912  0.0908
   25HFI     C2  780   0.333   2.672   0.481 -0.4310 -0.4777  0.4081
   25HFI     F1  781   0.323   2.563   0.563 -0.6148  0.4465  0.3831
   25HFI     F2  782   0.324   2.640   0.349 -0.1643 -0.2485  0.1374
   25HFI     F3  783   0.232   2.758   0.513  0.1382  0.6450 -0.5459
   25HFI     C3  784   0.507   2.869   0.448 -0.4527 -0.4100  0.3230
   25HFI     F4  785   0.520   2.863   0.312 -0.4950  0.0155 -0.2869
   25HFI     F5  786   0.628   2.917   0.501 -0.4922 -0.4423  0.0193
   25HFI     F6  787   0.424   2.971   0.473 -0.0822 -0.6922 -0.1246
   25HFI     H1  788   0.542   2.570   0.432  1.3900  0.3212 -0.9784
   25HFI     H2  789   0.465   2.761   0.625  2.6740  0.0856  0.3800
   26HFI     O1  790   1.351   1.067   2.999 -0.4108  0.6772 -0.3451
   26HFI     C1  791   1.230   1.093   2.924 -0.3740 -0.3610 -0.5612
   26HFI     C2  792   1.273   1.133   2.781 -0.8293 -0.8843 -0.0423
   26HFI     F1  793   1.362   1.044   2.743  0.1394 -0.2620  0.0956
   26HFI     F2  794   1.329   1.253   2.783  0.4427 -0.1481 -0.4286
   26HFI     F3  795   1.174   1.130   2.690  0.3029 -0.5052 -0.0887
   26HFI     C3  796   1.146   1.196   3.001 -0.2249  0.8066  0.9486
   26HFI     F4  797   1.039   1.234   2.924 -0.3539  0.4608  0.3135
   26HFI     F5  798   1.221   1.297   3.032  0.1440 -0.5401 -0.2093
   26HFI     F6  799   1.089   1.135   3.112  0.1833  0.1995 -0.1500
   26HFI     H1  800   1.418   1.131   2.968 -0.2428  0.3860 -0.5837
   26HFI     H2  801   1.172   1.001   2.911  0.9458 -1.0396 -1.7872
   27HFI     O1  802   0.507   2.011   0.442 -0.4798 -0.1785 -0.2735
   27HFI     C1  803   0.540   2.126   0.535 -0.3397 -0.4387  0.1685
   27HFI     C2  804   0.417   2.209   0.581 -0.2189  0.0827  0.3118
   27HFI     F1  805   0.447   2.276   0.689  0.0614 -0.1045  0.3821
   27HFI     F2  806   0.317   2.125   0.609 -0.4667 -0.1157  0.1749
   27HFI     F3  807   0.379   2.293   0.485  0.5897 -0.0291  0.1867
   27HFI     C3  808   0.649   2.215   0.472  0.0401 -0.1428  0.4769
   27HFI     F4  809   0.610   2.281   0.356 -0.3919 -0.5704  0.5174
   27HFI     F5  810   0.748   2.136   0.436 -0.1671  0.2213  0.0941
   27HFI     F6  811   0.697   2.303   0.567  0.0293 -0.0301 -0.2908
   27HFI     H1  812   0.443   2.052   0.381 -0.1747  0.8250  0.0688
   27HFI     H2  813   0.579   2.075   0.623 -0.1187 -1.2613 -0.3967
   28HFI     O1  814   2.116   0.079   3.371  0.5343 -0.4290 -0.1883
   28HFI     C1  815   2.216   0.127   3.277  0.0865 -0.6690 -0.5361
   28HFI     C2  816   2.141   0.139   3.134 -0.1409 -0.5739  0.3844
   28HFI     F1  817   2.197   0.241   3.063  0.1309  0.0285 -0.2008
   28HFI     F2  818   2.014   0.159   3.141  0.0803 -0.4041  0.0085
   28HFI     F3  819   2.156   0.033   3.050  0.8273  0.1355 -0.0732
   28HFI     C3  820   2.348   0.051   3.287 -0.1391  0.2467 -0.6468
   28HFI     F4  821   2.392   0.055   3.413  0.0186 -0.2555  0.4303
   28HFI     F5  822   2.449   0.104   3.210 -0.1591 -0.4180  0.4895
   28HFI     F6  823   2.336  -0.080   3.251  0.5717 -0.1293 -0.0429
   28HFI     H1  824   2.058   0.021   3.318 -0.1721 -1.0320  1.2146
   28HFI     H2  825   2.231   0.233   3.304 -0.7272 -1.2937  2.6036
   29HFI     O1  826   0.116   0.457   0.864  0.1251 -0.5772  0.5662
   29HFI     C1  827  -0.003   0.414   0.937 -0.4391  0.2579  0.3048
   29HFI     C2  828  -0.125   0.429   0.849  0.1249  0.2711 -0.5270
   29HFI     F1  829  -0.124   0.335   0.751  0.2144  0.5702  0.5808
   29HFI     F2  830  -0.137   0.554   0.790  0.3178  1.2096  0.0673
   29HFI     F3  831  -0.234   0.406   0.918  0.5251 -0.0614 -0.3179
   29HFI     C3  832  -0.007   0.475   1.079 -0.4580 -0.4466  0.0154
   29HFI     F4  833  -0.074   0.595   1.086 -0.5273  0.2694 -0.1625
   29HFI     F5  834   0.112   0.491   1.138  0.5574 -0.4124  0.1526
   29HFI     F6  835  -0.072   0.390   1.158  0.1877  0.4381 -0.2944
   29HFI     H1  836   0.158   0.515   0.931  0.6558  0.5159 -0.6935
   29HFI     H2  837  -0.005   0.305   0.945  1.7369  0.1603 -0.2108
   30HFI     O1  838   1.359   1.342   0.873  0.0472 -0.0175  0.6666
   30HFI     C1  839   1.468   1.344   0.968 -0.3450 -0.2684 -0.0808
   30HFI     C2  840   1.419   1.393   1.107 -0.2799 -0.0420  0.0620
   30HFI     F1  841   1.294   1.357   1.133 -0.2072 -0.3832 -0.0553
   30HFI     F2  842   1.420   1.522   1.135 -0.1141  0.2924 -0.5507
   30HFI     F3  843   1.495   1.333   1.197 -0.3072 -0.1757  0.0442
   30HFI     C3  844   1.596   1.397   0.914  0.0968 -0.8442 -0.3492
   30HFI     F4  845   1.576   1.505   0.841 -0.3478 -0.7764 -0.2243
   30HFI     F5  846   1.655   1.310   0.829 -0.1548 -0.3990 -0.1670
   30HFI     F6  847   1.684   1.416   1.017 -0.6349  0.1803 -0.6293
   30HFI     H1  848   1.388   1.368   0.783 -0.0936  1.1621  0.9516
   30HFI     H2  849   1.489   1.240   0.997 -0.0757  0.0201  0.7741
   31HFI     O1  850   2.316   0.041   0.463  0.1477 -0.1602  0.5175
   31HFI     C1  851   2.340  -0.089   0.519  0.5212 -0.0896  0.3720
   31HFI     C2  852   2.439  -0.180   0.432  0.6490 -0.8086  0.4392
   31HFI     F1  853   2.403  -0.213   0.301 -0.2751 -0.2824  0.2821
   31HFI     F2  854   2.464  -0.298   0.499  0.1315 -0.1565 -0.2109
   31HFI     F3  855   2.562  -0.112   0.428  0.2350  0.2433 -0.0421
   31HFI     C3  856   2.206  -0.163   0.557 -0.3428  0.5272 -0.0885
   31HFI     F4  857   2.224  -0.247   0.664  0.1155 -0.0654 -0.2763
   31HFI     F5  858   2.162  -0.251   0.455 -0.1493 -0.2375  0.4005
   31HFI     F6  859   2.104  -0.079   0.592  0.3311  0.1818 -0.5259
   31HFI     H1  860   2.399   0.085   0.439  0.5610 -1.1913  0.0116
   31HFI     H2  861   2.395  -0.077   0.613  2.1395  0.0319 -0.5672
   32HFI     O1  862   2.525   0.225   1.389  0.9193 -0.1859  0.6910
   32HFI     C1  863   2.587   0.093   1.393 -0.0631  0.2820 -1.0158
   32HFI     C2  864   2.513  -0.009   1.301 -0.0501  0.1243  0.4822
   32HFI     F1  865   2.384  -0.028   1.329  0.3294 -0.1251 -0.3459
   32HFI     F2  866   2.572  -0.136   1.307 -0.1251  0.2534  0.1897
   32HFI     F3  867   2.525   0.029   1.167 -0.0197 -0.2043  0.3467
   32HFI     C3  868   2.583   0.050   1.537  0.2848  0.3314 -1.1760
   32HFI     F4  869   2.646   0.145   1.610 -0.4174 -0.3313  0.2008
   32HFI     F5  870   2.633  -0.072   1.550 -0.2198 -0.0215 -0.1902
   32HFI     F6  871   2.450   0.057   1.574  0.1180 -0.3626  0.3470
   32HFI     H1  872   2.435   0.218   1.423 -0.4509  0.7541 -2.5667
   32HFI     H2  873   2.691   0.100   1.362  0.8355 -0.5629  1.6217
   33HFI     O1  874   1.619   0.818   1.617 -0.0278  0.1119 -0.4282
   33HFI     C1  875   1.685   0.889   1.512 -0.5216  0.1557 -0.9900
   33HFI     C2  876   1.608   1.007   1.457 -0.1015  0.2501 -0.0689
   33HFI     F1  877   1.496   0.978   1.387 -0.1718  0.0376  0.2263
   33HFI     F2  878   1.682   1.080   1.379  0.2513  0.2085  0.4932
   33HFI     F3  879   1.567   1.090   1.560  0.2373 -0.1338 -0.0200
   33HFI     C3  880   1.761   0.798   1.409  0.3685 -0.2609  0.2430
   33HFI     F4  881   1.670   0.710   1.347  0.3022 -0.1787 -0.3861
   33HFI     F5  882   1.855   0.727   1.476 -0.5991 -0.0148 -0.3796
   33HFI     F6  883   1.824   0.862   1.312 -0.8194  0.0093 -0.7984
   33HFI     H1  884   1.538   0.866   1.640 -0.0676 -1.4398  2.9562
   33HFI     H2  885   1.770   0.942   1.557  1.2258  0.2665 -4.2418
   34HFI     O1  886   2.049   2.453   1.173  0.7448 -0.0372 -0.4272
   34HFI     C1  887   2.053   2.375   1.050  0.1066 -0.0681 -0.2382
   34HFI     C2  888   2.020   2.225   1.073 -0.5356  0.4474  0.2551
   34HFI     F1  889   2.048   2.147   0.960  0.4077  0.0257  0.1950
   34HFI     F2  890   1.884   2.209   1.103  0.0164 -0.1845 -0.3291
   34HFI     F3  891   2.104   2.176   1.174  0.0752  0.0087  0.0524
   34HFI     C3  892   2.176   2.410   0.964 -0.1547 -0.3843 -0.1894
   34HFI     F4  893   2.292   2.357   1.021 -0.1663  0.0825  0.1605
   34HFI     F5  894   2.197   2.539   0.953  0.3835 -0.2371 -0.5713
   34HFI     F6  895   2.171   2.361   0.847  0.1573  0.1047 -0.3703
   34HFI     H1  896   2.122   2.432   1.233 -0.1926  0.5893  0.9667
   34HFI     H2  897   1.962   2.402   0.995 -0.4666 -1.5803 -0.0476
   35HFI     O1  898   1.966   2.474   2.746 -0.6797 -0.7896  0.1560
   35HFI     C1  899   1.860   2.534   2.827  0.3849 -0.1465 -0.4605
   35HFI     C2  900   1.716   2.478   2.785  0.8640  0.1734  0.5325
   35HFI     F1  901   1.709   2.338   2.807 -0.5582  0.0513  0.4321
   35HFI     F2  902   1.692   2.505   2.657  0.1963 -0.5195  0.0581
   35HFI     F3  903   1.617   2.534   2.852 -0.4479  0.1873 -0.2564
   35HFI     C3  904   1.866   2.690   2.815  0.7122 -0.0085  0.0179
   35HFI     F4  905   1.838   2.748   2.699 -0.1147 -0.6146  0.0727
   35HFI     F5  906   1.984   2.743   2.860 -0.0508  0.1478  0.3472
   35HFI     F6  907   1.771   2.743   2.898 -0.3739  0.2537 -0.0409
   35HFI     H1  908   2.054   2.468   2.788 -0.5881 -0.3962  0.0287
   35HFI     H2  909   1.876   2.510   2.933 -0.6463 -2.7782 -0.8514
   36HFI     O1  910   1.096   2.899   1.423  0.0721 -0.2433 -0.5239
   36HFI     C1  911   0.958   2.919   1.384 -0.0189  0.7094 -0.3691
   36HFI     C2  912   0.900   3.046   1.464 -0.5766  0.0271  0.4874
   36HFI     F1  913   0.906   3.031   1.603 -0.2968  0.3474  0.2836
   36HFI     F2  914   0.778   3.081   1.434 -0.0385 -0.3498  0.2147
   36HFI     F3  915   0.980   3.149   1.443 -0.2102 -0.1002  0.1375
   36HFI     C3  916   0.862   2.791   1.402  0.5711  0.1663 -0.1078
   36HFI     F4  917   0.735   2.815   1.380  0.1249  0.0103 -0.0984
   36HFI     F5  918   0.883   2.723   1.513  0.3674  0.1966  0.6315
   36HFI     F6  919   0.893   2.706   1.298 -0.0300 -0.4614 -0.1542
   36HFI     H1  920   1.104   2.896   1.520  3.3748  0.8105 -0.6952
   36HFI     H2  921   0.961   2.947   1.278  1.4130 -0.0589 -0.5470
   37HFI     O1  922   1.798   2.574   1.252  0.2211  0.2876  0.1733
   37HFI     C1  923   1.763   2.591   1.392  0.0057 -0.1572  0.7572
   37HFI     C2  924   1.834   2.716   1.450 -1.2139 -0.5955  0.2910
   37HFI     F1  925   1.961   2.709   1.456 -0.1866 -0.9063  0.6141
   37HFI     F2  926   1.788   2.738   1.575 -0.7086 -0.1173 -0.1821
   37HFI     F3  927   1.806   2.827   1.371  0.2423 -0.4513 -0.4485
   37HFI     C3  928   1.789   2.462   1.483 -0.0439 -0.1513 -0.9393
   37HFI     F4  929   1.807   2.353   1.407 -0.6270  0.3188  0.3317
   37HFI     F5  930   1.679   2.431   1.562  0.3112 -0.4342  0.0961
   37HFI     F6  931   1.896   2.468   1.567  0.1875  0.1534 -0.2879
   37HFI     H1  932   1.893   2.586   1.237 -0.1089  1.9275 -0.7179
   37HFI     H2  933   1.655   2.612   1.389  0.5139  2.5109 -1.9282
   38HFI     O1  934   1.116   1.703   1.140 -0.2500 -0.8520  0.1263
   38HFI     C1  935   1.120   1.791   1.028  0.4502  0.5341 -0.3626
   38HFI     C2  936   0.976   1.791   0.958 -0.3696 -0.4768 -0.0407
   38HFI     F1  937   0.965   1.887   0.867  0.2610 -0.2370  0.8125
   38HFI     F2  938   0.885   1.825   1.048  0.6980 -0.1436  0.1653
   38HFI     F3  939   0.939   1.674   0.898  0.1890  0.1050  0.0303
   38HFI     C3  940   1.230   1.747   0.922 -0.2405 -0.1804  0.4529
   38HFI     F4  941   1.354   1.751   0.979  0.2277  0.1477 -0.5069
   38HFI     F5  942   1.229   1.834   0.819  0.2600  0.0481 -0.3737
   38HFI     F6  943   1.204   1.621   0.879 -0.1449 -0.0178  0.0149
   38HFI     H1  944   1.207   1.674   1.158 -0.5649 -1.6331  0.5032
   38HFI     H2  945   1.147   1.895   1.052  1.5116  0.5567 -1.5906
   39HFI     O1  946   2.222   0.261   0.768 -0.3914  0.2349 -0.3282
   39HFI     C1  947   2.253   0.232   0.905  0.4581 -0.3416  0.4522
   39HFI     C2  948   2.398   0.273   0.941 -0.5483 -0.4638 -0.1216
   39HFI     F1  949   2.491   0.207   0.870 -0.1857  0.6291 -0.8271
   39HFI     F2  950   2.423   0.266   1.074  0.1435 -0.5991 -0.1615
   39HFI     F3  951   2.411   0.402   0.909  0.7615  0.0243 -0.6249
   39HFI     C3  952   2.229   0.085   0.928 -0.1055  0.6469 -0.3985
   39HFI     F4  953   2.115   0.043   0.872 -0.0954 -0.2072  0.1054
   39HFI     F5  954   2.217   0.053   1.055  0.3137 -0.1197  0.0986
   39HFI     F6  955   2.324   0.005   0.878 -0.5654 -0.2536  0.0087
   39HFI     H1  956   2.126   0.251   0.757 -0.3243  1.0409 -1.7815
   39HFI     H2  957   2.190   0.296   0.969 -0.6603  0.4002 -1.3540
   40HFI     O1  958   2.674   2.874   3.287 -0.2538 -0.3398 -0.3269
   40HFI     C1  959   2.542   2.925   3.247  0.4896 -0.5689  0.8013
   40HFI     C2  960   2.545   3.049   3.165 -0.7641 -0.4606 -0.3009
   40HFI     F1  961   2.426   3.096   3.133  0.1433 -0.1040 -0.2016
   40HFI     F2  962   2.606   3.019   3.048  0.2897  0.4019 -0.4506
   40HFI     F3  963   2.620   3.156   3.215  0.0794  0.1760 -0.0967
   40HFI     C3  964   2.449   2.942   3.365 -0.9168 -0.2775 -0.0045
   40HFI     F4  965   2.524   3.005   3.459 -0.2048 -0.0604  0.2886
   40HFI     F5  966   2.408   2.827   3.418  0.3028  0.1631 -0.3957
   40HFI     F6  967   2.348   3.020   3.348  0.0513  0.1261  0.0752
   40HFI     H1  968   2.705   2.909   3.372  2.2345 -0.4636 -1.1343
   40HFI     H2  969   2.485   2.859   3.181  2.0003 -0.2780 -0.8386
   41HFI     O1  970   0.728   1.556   1.208 -0.4286 -0.1205 -0.0628
   41HFI     C1  971   0.590   1.599   1.180  0.5567  0.3168  0.4633
   41HFI     C2  972   0.496   1.482   1.223  0.0487  0.1434 -0.3716
   41HFI     F1  973   0.541   1.369   1.164  0.2902  0.2076  0.0843
   41HFI     F2  974   0.371   1.505   1.185 -0.0932  0.3366  0.4312
   41HFI     F3  975   0.488   1.471   1.354  0.1148  0.0199 -0.5256
   41HFI     C3  976   0.566   1.652   1.040 -0.0555 -0.6023  0.4814
   41HFI     F4  977   0.438   1.662   0.998 -0.9251 -0.2841  0.0357
   41HFI     F5  978   0.629   1.581   0.950  0.0748  0.0063  0.2489
   41HFI     F6  979   0.627   1.773   1.045  0.1981  0.0483  0.0271
   41HFI     H1  980   0.755   1.492   1.140  0.9037  0.8395 -0.4593
   41HFI     H2  981   0.567   1.682   1.249  1.5579 -0.6147  1.9345
   42HFI     O1  982   0.671   0.555   3.118  0.0978 -0.3313 -0.4698
   42HFI     C1  983   0.618   0.483   3.228 -0.0971  0.2666  0.3739
   42HFI     C2  984   0.570   0.586   3.342  0.7360  0.0176 -0.1755
   42HFI     F1  985   0.506   0.685   3.289  0.4017 -0.1439 -0.2350
   42HFI     F2  986   0.668   0.639   3.416 -0.1066 -0.1403  0.0626
   42HFI     F3  987   0.477   0.532   3.425 -0.4323 -0.3123  0.2175
   42HFI     C3  988   0.711   0.375   3.282 -0.0590  0.0377 -0.0343
   42HFI     F4  989   0.819   0.436   3.329 -0.5153  0.3696  0.8956
   42HFI     F5  990   0.743   0.288   3.186  0.5004  0.6060  0.3072
   42HFI     F6  991   0.651   0.308   3.383 -0.1826  0.3576  0.5823
   42HFI     H1  992   0.622   0.639   3.117 -1.3382 -1.1526 -1.0872
   42HFI     H2  993   0.520   0.440   3.201  1.5239 -2.5738 -1.2219
   43HFI     O1  994   2.979   2.292   0.182 -0.1020  0.2224 -0.2656
   43HFI     C1  995   2.921   2.265   0.053  0.5018 -0.0424  0.2348
   43HFI     C2  996   3.023   2.295  -0.063  0.6693  0.0669  0.3561
   43HFI     F1  997   2.985   2.225  -0.173  0.3284 -0.1544  0.0852
   43HFI     F2  998   3.145   2.262  -0.035  0.1187  0.2217 -0.6493
   43HFI     F3  999   3.028   2.426  -0.099  0.7094  0.0613  0.2052
   43HFI     C3 1000   2.782   2.332   0.034 -0.4363  0.1338 -0.0164
   43HFI     F4 1001   2.724   2.271  -0.071  0.4022  0.0331 -0.4323
   43HFI     F5 1002   2.784   2.461   0.018 -0.1760 -0.3773 -0.4620
   43HFI     F6 1003   2.710   2.311   0.141  0.3764 -0.1163 -0.3093
   43HFI     H1 1004   3.030   2.374   0.171  1.3592 -0.7458 -0.8134
   43HFI     H2 1005   2.916   2.155   0.049  1.7660 -0.1642  1.6378
   44HFI     O1 1006   3.145   0.103   1.115 -0.1046  0.4233 -0.7345
   44HFI     C1 1007   3.053   0.076   1.006  0.1172 -0.0971  0.0948
   44HFI     C2 1008   2.903   0.121   1.034  0.0845  0.2149 -0.0882
   44HFI     F1 1009   2.828   0.117   0.920  0.0875  0.6874  0.2270
   44HFI     F2 1010   2.903   0.246   1.074  0.2355  0.4413  0.1599
   44HFI     F3 1011   2.850   0.042   1.125  0.4490  0.4141  0.3826
   44HFI     C3 1012   3.073  -0.071   0.962 -0.8931  0.0861 -0.0617
   44HFI     F4 1013   3.068  -0.161   1.069 -0.1388 -0.0408 -0.3809
   44HFI     F5 1014   3.200  -0.079   0.912 -0.1604 -0.0812 -0.5135
   44HFI     F6 1015   2.988  -0.111   0.867  0.1992 -0.2794 -0.0882
   44HFI     H1 1016   3.130   0.045   1.191 -0.3085 -1.1078 -1.9039
   44HFI     H2 1017   3.066   0.132   0.913  1.9416  1.0773  1.0168
   45HFI     O1 1018   0.440   2.722   1.022 -0.0238  0.5800  0.0313
   45HFI     C1 1019   0.498   2.827   0.948 -0.0101 -0.8673  0.3772
   45HFI     C2 1020   0.605   2.901   1.044  0.7949 -0.2877 -0.2847
   45HFI     F1 1021   0.702   2.820   1.091  0.9210  0.2359 -0.6763
   45HFI     F2 1022   0.540   2.970   1.148  0.1788  0.0212  0.0625
   45HFI     F3 1023   0.667   3.003   0.973  0.1347 -0.0557  0.2315
   45HFI     C3 1024   0.390   2.927   0.882  0.4286  0.1653  0.1757
   45HFI     F4 1025   0.334   3.010   0.978 -0.2968  0.2907 -0.8030
   45HFI     F5 1026   0.292   2.867   0.816 -0.0992  0.7134  0.5503
   45HFI     F6 1027   0.443   3.005   0.787  0.1655  0.3571 -0.2743
   45HFI     H1 1028   0.500   2.697   1.095 -2.6694 -0.4166  1.9316
   45HFI     H2 1029   0.558   2.791   0.864 -2.6383 -2.8016 -0.7322
   46HFI     O1 1030   1.419   2.547   0.221 -0.0666 -0.4065  0.1570
   46HFI     C1 1031   1.437   2.683   0.254 -0.5717 -0.5260 -0.1770
   46HFI     C2 1032   1.335   2.727   0.366  0.1614  0.3643  0.2699
   46HFI     F1 1033   1.210   2.698   0.331  0.2339 -0.5509 -0.1482
   46HFI     F2 1034   1.346   2.863   0.389  0.2001 -0.0351  0.6211
   46HFI     F3 1035   1.357   2.662   0.483  0.4579  0.1694 -0.1866
   46HFI     C3 1036   1.427   2.774   0.133  0.6622 -0.4972  0.3333
   46HFI     F4 1037   1.301   2.764   0.074  0.1231 -0.0795  0.7267
   46HFI     F5 1038   1.518   2.727   0.048  0.2425 -0.2766  0.0818
   46HFI     F6 1039   1.451   2.902   0.155 -0.6790 -0.4268 -0.5350
   46HFI     H1 1040   1.330   2.527   0.186  0.5181 -0.9483 -1.0296
   46HFI     H2 1041   1.537   2.695   0.297 -1.2991 -1.0075  1.6984
   47HFI     O1 1042   1.641   3.266   0.905 -0.7065 -0.3837 -0.1165
   47HFI     C1 1043   1.619   3.328   1.031 -0.0960  0.0447 -0.1315
   47HFI     C2 1044   1.528   3.455   1.025 -0.7508  0.4291  0.8435
   47HFI     F1 1045   1.467   3.463   1.141 -0.1186 -0.0486 -0.0062
   47HFI     F2 1046   1.444   3.455   0.926  0.3230  0.6246  0.1887
   47HFI     F3 1047   1.604   3.568   1.005  0.3920  0.1877 -0.2595
   47HFI     C3 1048   1.768   3.348   1.097 -0.1653  0.6810  0.0350
   47HFI     F4 1049   1.837   3.229   1.099  0.2320  0.6098  0.5442
   47HFI     F5 1050   1.761   3.404   1.220 -0.4485  0.4402  0.2641
   47HFI     F6 1051   1.844   3.430   1.020  0.1629  0.0167  0.2468
   47HFI     H1 1052   1.561   3.242   0.856  0.9526 -0.2466 -2.9905
   47HFI     H2 1053   1.571   3.252   1.093 -0.9850  1.5644  1.0931
   48HFI     O1 1054   0.799   1.902   1.299 -0.5133 -0.1467  0.0286
   48HFI     C1 1055   0.885   1.809   1.380 -0.3698 -0.2092  0.0673
   48HFI     C2 1056   0.809   1.749   1.507  0.2539  0.5954 -0.1910
   48HFI     F1 1057   0.880   1.664   1.585  0.2108 -0.2564 -0.3186
   48HFI     F2 1058   0.695   1.684   1.472 -0.5881 -0.1461  0.4822
   48HFI     F3 1059   0.755   1.844   1.585 -0.0622 -0.5712 -0.0210
   48HFI     C3 1060   1.026   1.869   1.423  0.5857  0.7734  0.4499
   48HFI     F4 1061   1.109   1.767   1.428 -0.0847  0.0541 -0.4169
   48HFI     F5 1062   1.037   1.937   1.537  0.2635  0.3033  0.2965
   48HFI     F6 1063   1.069   1.947   1.322  0.0577 -0.3315 -0.0656
   48HFI     H1 1064   0.821   1.887   1.205  0.7032  2.3580 -0.1271
   48HFI     H2 1065   0.896   1.716   1.323 -1.0555  1.1753 -2.3754
   49HFI     O1 1066   3.327   0.876   1.534 -0.2574 -0.4406 -0.6685
   49HFI     C1 1067   3.351   0.727   1.537 -0.0759 -0.5412 -0.1126
   49HFI     C2 1068   3.494   0.686   1.488  0.4982 -0.4547  0.6388
   49HFI     F1 1069   3.499   0.558   1.467 -0.3656 -0.7440  0.3598
   49HFI     F2 1070   3.589   0.723   1.576 -0.3841 -0.5581  0.7549
   49HFI     F3 1071   3.521   0.749   1.376 -0.7223  0.0828 -0.2096
   49HFI     C3 1072   3.238   0.645   1.478  0.7540  0.5204  0.0392
   49HFI     F4 1073   3.250   0.514   1.508  0.4244 -0.2592 -0.2086
   49HFI     F5 1074   3.218   0.658   1.342  0.3793  0.2947 -0.1411
   49HFI     F6 1075   3.123   0.681   1.543  0.0047 -0.1794  0.5788
   49HFI     H1 1076   3.329   0.911   1.443  0.7994  0.6969 -0.2305
   49HFI     H2 1077   3.350   0.695   1.643  0.4798  1.3671  0.4820
   50HFI     O1 1078   2.847   3.097   1.235  0.1167 -0.4697 -0.4011
   50HFI     C1 1079   2.859   3.115   1.383  0.3577 -0.1038 -0.1593
   50HFI     C2 1080   2.958   3.234   1.427  0.0218  0.3822 -0.0168
   50HFI     F1 1081   2.972   3.248   1.558 -0.1666 -0.2341  0.1082
   50HFI     F2 1082   2.912   3.351   1.368  0.3781 -0.1363 -0.5088
   50HFI     F3 1083   3.084   3.220   1.370 -0.2005  0.4819  0.3048
   50HFI     C3 1084   2.902   2.977   1.455  0.0198  0.6292 -0.5532
   50HFI     F4 1085   2.905   2.996   1.588 -0.2556 -0.5967  0.0861
   50HFI     F5 1086   3.026   2.938   1.412  0.5491  0.0635  0.0219
   50HFI     F6 1087   2.817   2.879   1.430  0.0272 -0.3545 -0.4846
   50HFI     H1 1088   2.935   3.080   1.198  2.1940  0.1098  3.9375
   50HFI     H2 1089   2.761   3.141   1.426 -0.8445 -3.5083 -0.6880
   51HFI     O1 1090   1.432   0.601   3.055  0.2648 -0.2787  0.2297
   51HFI     C1 1091   1.465   0.636   2.914 -0.0721 -0.1735 -0.0158
   51HFI     C2 1092   1.582   0.732   2.902 -0.0568  0.7097  0.4335
   51HFI     F1 1093   1.543   0.853   2.940 -0.5497 -0.8119  0.4706
   51HFI     F2 1094   1.639   0.741   2.780 -0.3609 -0.4273  0.9322
   51HFI     F3 1095   1.679   0.694   2.982 -0.2478  0.2465 -0.0574
   51HFI     C3 1096   1.344   0.684   2.838 -0.2868  0.1605  0.3361
   51HFI     F4 1097   1.274   0.572   2.809 -0.2374  0.4208  0.2006
   51HFI     F5 1098   1.370   0.749   2.716 -0.1081  0.0700  0.0408
   51HFI     F6 1099   1.268   0.770   2.909 -0.9446  0.1050  0.4389
   51HFI     H1 1100   1.501   0.637   3.113  0.6147 -1.0545  0.2976
   51HFI     H2 1101   1.484   0.541   2.863 -0.2719  0.4045 -1.1766
   52HFI     O1 1102   1.405   0.713   1.042  0.5528 -0.1481  0.2688
   52HFI     C1 1103   1.411   0.837   0.957  0.2757 -0.5041  0.2326
   52HFI     C2 1104   1.525   0.935   0.993 -0.8910  0.3931 -0.9592
   52HFI     F1 1105   1.518   0.990   1.112 -0.0191 -0.2587 -0.8253
   52HFI     F2 1106   1.534   1.039   0.914 -0.2280 -0.2023  0.0502
   52HFI     F3 1107   1.644   0.866   0.987  0.1719  0.6841  0.2913
   52HFI     C3 1108   1.271   0.910   0.950  0.1145  0.2075  0.2802
   52HFI     F4 1109   1.278   1.011   0.873  0.1407 -0.1769  0.2472
   52HFI     F5 1110   1.232   0.943   1.081 -0.4282  0.2341  0.3742
   52HFI     F6 1111   1.177   0.831   0.890  0.3484  0.5422  0.1713
   52HFI     H1 1112   1.352   0.731   1.122 -0.6753  0.6657 -0.6926
   52HFI     H2 1113   1.430   0.799   0.855 -3.1700 -1.9802  0.0868
   53HFI     O1 1114   1.179   0.166   0.946  0.3117 -0.0659  0.2533
   53HFI     C1 1115   1.170   0.276   0.853 -0.4426  0.1889  0.1349
   53HFI     C2 1116   1.302   0.365   0.868  0.5614 -1.0779  0.1515
   53HFI     F1 1117   1.405   0.311   0.799 -0.3103  0.4484 -0.2884
   53HFI     F2 1118   1.330   0.371   1.005 -0.2304 -0.4460 -0.4576
   53HFI     F3 1119   1.282   0.494   0.828 -0.3097 -0.0444  0.3839
   53HFI     C3 1120   1.038   0.354   0.890 -0.3736  0.6448 -0.2537
   53HFI     F4 1121   1.046   0.405   1.021  0.1090  0.0426  0.1453
   53HFI     F5 1122   0.932   0.268   0.889  0.5030  0.1445  0.3467
   53HFI     F6 1123   1.008   0.456   0.804  0.0518 -0.1802 -0.4631
   53HFI     H1 1124   1.228   0.202   1.022 -0.2086 -1.1831  1.1356
   53HFI     H2 1125   1.163   0.238   0.750  0.8934 -1.0450  0.4834
   54HFI     O1 1126   0.624   2.391   0.958 -0.2299 -0.0875  0.1225
   54HFI     C1 1127   0.694   2.299   1.042  0.1928  0.2743 -0.2945
   54HFI     C2 1128   0.834   2.360   1.075  0.5189 -0.1208 -0.9244
   54HFI     F1 1129   0.909   2.266   1.137 -0.3415  0.1495  0.1318
   54HFI     F2 1130   0.821   2.470   1.157 -0.3999 -0.0688  0.2813
   54HFI     F3 1131   0.891   2.405   0.960  0.3042  0.3104 -0.4058
   54HFI     C3 1132   0.698   2.156   0.973  0.1562  0.2055  0.3100
   54HFI     F4 1133   0.575   2.107   0.959 -0.4201  0.3481  0.0339
   54HFI     F5 1134   0.767   2.068   1.041  0.1138  0.1531 -0.5281
   54HFI     F6 1135   0.750   2.157   0.846  0.8506 -0.5996  0.5536
   54HFI     H1 1136   0.541   2.353   0.925 -1.2509  2.7895 -0.7834
   54HFI     H2 1137   0.634   2.277   1.132 -1.0665 -0.2746 -1.2439
   55HFI     O1 1138   2.160   0.427   3.731 -0.4404 -0.2836 -0.3290
   55HFI     C1 1139   2.044   0.512   3.693  0.1146 -0.0655 -0.1348
   55HFI     C2 1140   2.094   0.663   3.685 -0.0865  0.2649  0.2650
   55HFI     F1 1141   2.203   0.663   3.608  0.5727  0.4081  0.8814
   55HFI     F2 1142   2.135   0.714   3.807  0.0734  0.1982 -0.2553
   55HFI     F3 1143   2.005   0.740   3.635  0.0090 -0.7561  0.2372
   55HFI     C3 1144   1.916   0.504   3.787 -0.2196 -0.0126  0.0631
   55HFI     F4 1145   1.883   0.378   3.793 -0.1381 -0.2689  0.5921
   55HFI     F5 1146   1.813   0.576   3.745  0.5320 -0.3087  0.1480
   55HFI     F6 1147   1.950   0.543   3.914  0.4596 -0.1862 -0.3822
   55HFI     H1 1148   2.124   0.337   3.739  0.4077 -0.7875 -1.9410
   55HFI     H2 1149   2.016   0.481   3.591  0.3675  1.9766 -0.8435
   56HFI     O1 1150   0.654   0.353   1.056  0.3159  0.0026 -0.8071
   56HFI     C1 1151   0.619   0.457   0.949 -0.0475 -0.6417 -0.5673
   56HFI     C2 1152   0.661   0.604   0.982  0.2658 -0.6840  0.4365
   56HFI     F1 1153   0.796   0.614   1.031 -0.3750  0.1321 -0.3821
   56HFI     F2 1154   0.578   0.661   1.080 -0.1696 -0.2282 -0.0799
   56HFI     F3 1155   0.642   0.691   0.875  0.3739  0.1151 -0.4301
   56HFI     C3 1156   0.463   0.444   0.931 -0.6413  0.4260 -0.1287
   56HFI     F4 1157   0.419   0.542   0.854 -0.2037 -0.0625  0.2436
   56HFI     F5 1158   0.392   0.457   1.046 -0.5335 -0.2685 -0.2574
   56HFI     F6 1159   0.422   0.332   0.876 -0.7249 -0.3663  0.0098
   56HFI     H1 1160   0.580   0.339   1.117  0.1143  0.7695 -0.8704
   56HFI     H2 1161   0.665   0.432   0.853  1.5993  0.3198 -0.0433
   57HFI     O1 1162   2.217   0.463   0.500  0.4969 -0.3947 -0.1262
   57HFI     C1 1163   2.353   0.503   0.475 -0.8187  1.1854 -0.3023
   57HFI     C2 1164   2.381   0.658   0.494  0.4233  0.1153 -0.2395
   57HFI     F1 1165   2.333   0.700   0.609 -0.1993  0.0598 -0.8766
   57HFI     F2 1166   2.318   0.731   0.400  0.6889 -0.3373  0.1794
   57HFI     F3 1167   2.515   0.697   0.490  0.1325  0.1616  0.0992
   57HFI     C3 1168   2.404   0.436   0.341 -0.3732 -0.0062  0.1981
   57HFI     F4 1169   2.348   0.497   0.240  0.1856  0.1352  0.1454
   57HFI     F5 1170   2.372   0.309   0.350  0.2690 -0.0887  0.2683
   57HFI     F6 1171   2.532   0.452   0.343 -0.1006 -0.3611 -0.2306
   57HFI     H1 1172   2.160   0.522   0.449  1.2265  1.6295  1.3321
   57HFI     H2 1173   2.415   0.462   0.556 -0.1495  1.7435 -0.5257
   58HFI     O1 1174   3.323   3.433   1.313 -0.1633  0.3122  0.0309
   58HFI     C1 1175   3.344   3.535   1.423 -0.2890 -0.1022  0.0851
   58HFI     C2 1176   3.474   3.510   1.497 -0.7435 -0.8491  0.1307
   58HFI     F1 1177   3.489   3.611   1.590 -0.1632  0.1941 -0.0810
   58HFI     F2 1178   3.585   3.519   1.419  0.2893  0.1127  0.3216
   58HFI     F3 1179   3.476   3.389   1.553 -0.7286 -0.1940 -0.2504
   58HFI     C3 1180   3.212   3.545   1.511  0.1172 -0.1103  0.1219
   58HFI     F4 1181   3.208   3.660   1.586 -0.5870  0.5378 -0.2006
   58HFI     F5 1182   3.210   3.441   1.597  0.2030 -0.3304 -0.6934
   58HFI     F6 1183   3.099   3.543   1.432 -0.3811 -0.1248 -0.0800
   58HFI     H1 1184   3.310   3.349   1.360  0.2346 -0.8196 -1.8517
   58HFI     H2 1185   3.356   3.634   1.376  0.1532 -0.2655 -0.1421
   59HFI     O1 1186   1.900   3.147   1.429  0.2520 -0.1376  0.2431
   59HFI     C1 1187   2.003   3.203   1.518 -0.6798  0.1675  0.2796
   59HFI     C2 1188   2.014   3.357   1.520 -0.3072  0.4915  0.6088
   59HFI     F1 1189   1.915   3.410   1.593 -0.2959  0.1534 -0.2854
   59HFI     F2 1190   2.011   3.398   1.390  0.1303 -0.3345  0.2542
   59HFI     F3 1191   2.129   3.402   1.576 -0.6866 -0.2962 -0.2008
   59HFI     C3 1192   2.142   3.128   1.496  0.1018  0.0145 -0.2598
   59HFI     F4 1193   2.209   3.115   1.611 -0.1388 -0.2312  0.1940
   59HFI     F5 1194   2.227   3.180   1.399 -0.2661  0.0226  0.7067
   59HFI     F6 1195   2.116   3.002   1.456 -0.4232  0.0103  0.5270
   59HFI     H1 1196   1.943   3.123   1.345  0.7638  2.9358 -0.4310
   59HFI     H2 1197   1.967   3.176   1.619 -0.4493  0.1358  0.3528
   60HFI     O1 1198   2.074   3.285   3.631  0.1266 -0.2124  0.5618
   60HFI     C1 1199   2.032   3.321   3.772  0.1104  0.2281  0.6799
   60HFI     C2 1200   1.965   3.463   3.774 -0.9117  0.1094  0.0257
   60HFI     F1 1201   2.058   3.557   3.744 -0.3350  0.2443 -0.0895
   60HFI     F2 1202   1.902   3.489   3.897  0.2051  0.2441  0.3492
   60HFI     F3 1203   1.864   3.465   3.691 -0.0701 -0.5324  0.5385
   60HFI     C3 1204   2.141   3.302   3.881 -0.2659 -0.4236 -0.0349
   60HFI     F4 1205   2.249   3.378   3.846 -0.2917 -0.4175  0.0921
   60HFI     F5 1206   2.179   3.172   3.888  0.1839  0.5540 -0.4301
   60HFI     F6 1207   2.098   3.347   4.002  0.2958 -0.3518 -0.9729
   60HFI     H1 1208   2.131   3.352   3.591 -2.7626  1.5364 -0.8241
   60HFI     H2 1209   1.940   3.265   3.795 -0.4836  0.3680 -1.2625
   61HFI     O1 1210   1.621   1.810   0.152 -0.2945 -0.6678 -0.7013
   61HFI     C1 1211   1.642   1.670   0.121 -0.5712  0.4112 -0.0169
   61HFI     C2 1212   1.769   1.647   0.034  0.3867 -0.4323  0.1162
   61HFI     F1 1213   1.776   1.742  -0.068  0.6699  0.1152  0.4895
   61HFI     F2 1214   1.780   1.517  -0.023  0.0495 -0.0194 -0.3630
   61HFI     F3 1215   1.880   1.678   0.114 -0.4351  0.3569  0.0896
   61HFI     C3 1216   1.517   1.604   0.043  0.2696  0.9286  0.5240
   61HFI     F4 1217   1.527   1.477   0.018  0.0295 -0.1587  0.2662
   61HFI     F5 1218   1.489   1.669  -0.069  0.1294 -0.5300  0.0644
   61HFI     F6 1219   1.399   1.619   0.116 -0.0931  0.5314  0.2925
   61HFI     H1 1220   1.632   1.863   0.071  1.1875 -0.2969 -0.2638
   61HFI     H2 1221   1.661   1.612   0.212  4.8785  1.4749 -0.3217
   62HFI     O1 1222   0.083   2.898   1.337 -0.4279 -0.1520  0.0882
   62HFI     C1 1223  -0.038   2.891   1.413  0.0284 -1.0511  0.6652
   62HFI     C2 1224  -0.047   3.027   1.492  0.7009  0.2303 -0.1823
   62HFI     F1 1225   0.068   3.058   1.564 -0.9755 -0.0038 -0.0390
   62HFI     F2 1226  -0.137   3.033   1.590  0.4274 -0.4954 -0.6204
   62HFI     F3 1227  -0.070   3.124   1.399  0.8876  0.1882 -0.1807
   62HFI     C3 1228  -0.037   2.769   1.511  0.8380 -0.5754 -0.0814
   62HFI     F4 1229  -0.044   2.647   1.454  0.2315  0.4565  0.1368
   62HFI     F5 1230  -0.154   2.784   1.590  0.2422 -0.0933  0.3278
   62HFI     F6 1231   0.074   2.777   1.591 -1.1076  1.0169  0.5736
   62HFI     H1 1232   0.159   2.900   1.397  0.2624  0.3272 -0.8043
   62HFI     H2 1233  -0.122   2.888   1.343  0.3655 -0.6510  0.2328
   63HFI     O1 1234   3.133   2.850   0.163  0.3189  0.4368  0.5091
   63HFI     C1 1235   3.249   2.787   0.235  0.9061 -0.0412 -0.1033
   63HFI     C2 1236   3.379   2.871   0.213 -0.0822  0.1524 -0.8746
   63HFI     F1 1237   3.362   3.003   0.239  0.3354 -0.0738  0.1304
   63HFI     F2 1238   3.414   2.863   0.083 -0.7883  0.1572 -0.2017
   63HFI     F3 1239   3.477   2.826   0.293 -0.0212 -0.3360 -0.2106
   63HFI     C3 1240   3.271   2.633   0.202  0.0005  0.6455 -0.5380
   63HFI     F4 1241   3.314   2.599   0.078  0.2319  0.3617  0.4258
   63HFI     F5 1242   3.151   2.565   0.214 -0.1897  0.3639  0.7168
   63HFI     F6 1243   3.355   2.567   0.293  0.0534  0.1060 -0.1001
   63HFI     H1 1244   3.161   2.850   0.070 -0.2288 -0.4874  0.3315
   63HFI     H2 1245   3.210   2.796   0.337 -3.8073 -1.0722 -1.6677
   64HFI     O1 1246   1.232   0.713   1.269  0.8057 -0.5096  0.3999
   64HFI     C1 1247   1.165   0.806   1.359 -0.3413  0.8853  1.0577
   64HFI     C2 1248   1.208   0.786   1.504  0.4303  0.2409  0.2930
   64HFI     F1 1249   1.163   0.675   1.555  0.2517 -0.0284 -0.3193
   64HFI     F2 1250   1.163   0.884   1.587 -0.0310 -0.1767  0.0670
   64HFI     F3 1251   1.346   0.782   1.516  0.1210  0.1007  0.5707
   64HFI     C3 1252   1.010   0.803   1.347 -0.4321 -0.4601  0.6650
   64HFI     F4 1253   0.963   0.680   1.330  0.1867  0.1690 -0.3556
   64HFI     F5 1254   0.980   0.885   1.237  0.0963  0.5968  0.3803
   64HFI     F6 1255   0.945   0.861   1.452  0.3466 -0.0064  0.1115
   64HFI     H1 1256   1.206   0.621   1.285 -0.5477 -0.1615  0.2704
   64HFI     H2 1257   1.198   0.908   1.335 -0.5720  0.7117 -0.0521
   65HFI     O1 1258   1.223   1.170   1.427 -0.4665  0.1277 -0.0836
   65HFI     C1 1259   1.145   1.244   1.519 -0.0388  0.8436 -0.4478
   65HFI     C2 1260   0.990   1.226   1.500 -0.8170 -0.5245  0.0089
   65HFI     F1 1261   0.948   1.112   1.568  0.5576  0.0612 -0.0403
   65HFI     F2 1262   0.955   1.210   1.375 -0.2480  0.1527 -0.3882
   65HFI     F3 1263   0.907   1.322   1.554 -0.2972  0.5274  0.1597
   65HFI     C3 1264   1.188   1.397   1.508 -0.4267  0.5009 -0.5100
   65HFI     F4 1265   1.165   1.436   1.381  0.8330 -0.3047 -0.3849
   65HFI     F5 1266   1.321   1.418   1.524 -0.0609 -0.3605  0.2608
   65HFI     F6 1267   1.121   1.483   1.595 -0.5557  0.0608  0.0668
   65HFI     H1 1268   1.229   1.209   1.338  1.3396  0.2787  0.0696
   65HFI     H2 1269   1.179   1.214   1.619  1.1648  1.3543 -0.6909
   66HFI     O1 1270   1.082   3.006   0.242 -0.1576  0.1046 -0.2624
   66HFI     C1 1271   1.030   3.101   0.142  0.2065  0.0139  0.6716
   66HFI     C2 1272   1.118   3.084   0.014 -0.3614  0.6265 -0.5024
   66HFI     F1 1273   1.247   3.089   0.044  0.0549 -0.6743 -0.2208
   66HFI     F2 1274   1.098   3.174  -0.083  0.1136 -0.0224 -0.5308
   66HFI     F3 1275   1.097   2.964  -0.039 -0.4472  0.1876  0.7818
   66HFI     C3 1276   1.002   3.246   0.194  0.1927 -0.1039  0.5535
   66HFI     F4 1277   0.948   3.243   0.315 -0.4080  0.2316  0.0584
   66HFI     F5 1278   0.914   3.306   0.108 -0.2271  0.2776  0.4709
   66HFI     F6 1279   1.112   3.322   0.201  0.0738 -0.3864  0.5261
   66HFI     H1 1280   1.159   3.037   0.293  0.0673  0.3299 -0.7354
   66HFI     H2 1281   0.934   3.060   0.106 -0.0117  0.1127  1.1405
   67HFI     O1 1282   2.833   0.715   0.297  0.3626  0.0402  0.5359
   67HFI     C1 1283   2.832   0.699   0.154 -0.4124  0.5012 -0.6402
   67HFI     C2 1284   2.946   0.613   0.099 -0.2558 -0.0939  0.6109
   67HFI     F1 1285   3.070   0.673   0.111 -0.1288 -0.1702  0.3211
   67HFI     F2 1286   2.927   0.587  -0.031  0.1600  0.3458  0.3354
   67HFI     F3 1287   2.945   0.496   0.168 -0.1169 -0.0623  0.2402
   67HFI     C3 1288   2.839   0.837   0.091  0.9844  0.2877  0.1154
   67HFI     F4 1289   2.730   0.902   0.141 -0.0806  0.0762 -0.3253
   67HFI     F5 1290   2.819   0.825  -0.040 -0.1468 -0.5400  0.3188
   67HFI     F6 1291   2.947   0.908   0.124 -0.3550  0.1133  0.2965
   67HFI     H1 1292   2.913   0.768   0.313  0.6778 -0.1350 -0.3783
   67HFI     H2 1293   2.734   0.658   0.130 -0.2723 -0.3507  0.2132
   68HFI     O1 1294   0.705   0.135   0.788  0.4750 -0.6648  0.5750
   68HFI     C1 1295   0.739   0.076   0.659  0.0793 -0.0085 -0.2699
   68HFI     C2 1296   0.796  -0.065   0.653 -0.1117 -0.2978  0.3984
   68HFI     F1 1297   0.923  -0.062   0.674  0.2391 -0.5206  0.0713
   68HFI     F2 1298   0.770  -0.129   0.535  0.2713  0.2782  0.0882
   68HFI     F3 1299   0.752  -0.148   0.753  0.3128 -0.8639 -0.0839
   68HFI     C3 1300   0.807   0.183   0.571 -0.1272 -0.4736 -0.0273
   68HFI     F4 1301   0.930   0.204   0.611 -0.2814 -0.2632 -0.0509
   68HFI     F5 1302   0.752   0.300   0.583 -0.4102  0.1874 -0.0750
   68HFI     F6 1303   0.802   0.149   0.434  0.0806 -0.3382  0.0363
   68HFI     H1 1304   0.669   0.069   0.849  0.7877 -1.1716  0.2174
   68HFI     H2 1305   0.642   0.052   0.612 -0.5506 -0.4203  1.2204
   69HFI     O1 1306   1.777   2.700   3.688 -0.6738  0.0752 -0.1839
   69HFI     C1 1307   1.884   2.797   3.719  0.2305 -0.2370  0.2074
   69HFI     C2 1308   1.855   2.871   3.849 -0.4491  0.2964 -0.1712
   69HFI     F1 1309   1.954   2.951   3.891  0.2561 -0.4391 -0.2987
   69HFI     F2 1310   1.842   2.786   3.953 -0.3301  0.2609  0.4901
   69HFI     F3 1311   1.749   2.950   3.844  0.6067 -0.7911  0.7458
   69HFI     C3 1312   1.914   2.890   3.598  0.4403  0.1064  0.0766
   69HFI     F4 1313   1.959   2.822   3.492 -0.0867  0.2537 -0.3444
   69HFI     F5 1314   1.993   2.987   3.628 -0.1339  0.4523  0.6056
   69HFI     F6 1315   1.796   2.947   3.562  0.5825  0.4785 -0.1781
   69HFI     H1 1316   1.740   2.719   3.601 -0.5378 -0.3824 -0.3457
   69HFI     H2 1317   1.967   2.726   3.734 -1.1199 -1.4403  2.2776
   70HFI     O1 1318   2.739   2.581   1.347 -0.6737 -0.0426 -0.4918
   70HFI     C1 1319   2.812   2.471   1.399  0.0616 -0.2465  0.0047
   70HFI     C2 1320   2.714   2.365   1.459  0.4552 -0.2626  0.8529
   70HFI     F1 1321   2.779   2.253   1.486 -0.0338  0.4726  0.4016
   70HFI     F2 1322   2.626   2.328   1.356 -0.4966  0.0176  0.5008
   70HFI     F3 1323   2.649   2.402   1.568  0.1316  0.2907 -0.1691
   70HFI     C3 1324   2.926   2.519   1.496 -0.1911 -0.2168 -0.5320
   70HFI     F4 1325   2.883   2.632   1.558 -0.3516 -0.7881  0.1667
   70HFI     F5 1326   3.040   2.559   1.434 -0.0765  0.1335  0.2567
   70HFI     F6 1327   2.960   2.429   1.591  0.3248 -0.1160 -0.3358
   70HFI     H1 1328   2.727   2.648   1.416  0.5479  0.7954 -1.0710
   70HFI     H2 1329   2.866   2.422   1.317 -0.4244 -1.0287  0.1479
   71HFI     O1 1330   2.718   0.534   0.936  0.4001  0.2865 -0.3290
   71HFI     C1 1331   2.706   0.677   0.945 -0.4152  0.0894  0.7525
   71HFI     C2 1332   2.843   0.742   0.970 -0.4321  0.5377 -0.2886
   71HFI     F1 1333   2.937   0.679   0.891  0.0739 -0.3131 -0.6148
   71HFI     F2 1334   2.876   0.717   1.096 -0.1002  0.8983 -0.3249
   71HFI     F3 1335   2.846   0.879   0.954 -0.1924 -0.4260  0.5414
   71HFI     C3 1336   2.588   0.740   1.048  0.1006  0.0737 -0.7022
   71HFI     F4 1337   2.481   0.665   1.020 -0.3326  0.1919 -0.1212
   71HFI     F5 1338   2.547   0.865   1.046  0.2728 -0.4674  0.1167
   71HFI     F6 1339   2.612   0.715   1.175 -0.2027  0.2655 -0.6313
   71HFI     H1 1340   2.706   0.493   1.024 -1.2598  2.1425  0.3374
   71HFI     H2 1341   2.675   0.712   0.846 -1.7002 -0.6000  0.9077
   72HFI     O1 1342   0.087   1.812   0.891 -0.4737 -0.3923 -0.5074
   72HFI     C1 1343  -0.006   1.775   0.998 -0.9901  0.5285  0.2297
   72HFI     C2 1344   0.060   1.810   1.136  0.4306  1.0933 -0.0279
   72HFI     F1 1345   0.195   1.788   1.135 -0.2506  0.4047  0.2140
   72HFI     F2 1346  -0.001   1.734   1.238 -0.9209 -0.4272 -0.3029
   72HFI     F3 1347   0.046   1.938   1.165 -0.2660  0.3849  0.0774
   72HFI     C3 1348  -0.041   1.625   0.982 -0.3842 -0.3022  0.2150
   72HFI     F4 1349   0.069   1.545   1.014  0.0654  0.0254  0.3991
   72HFI     F5 1350  -0.080   1.608   0.851 -0.2756 -0.1459  0.2779
   72HFI     F6 1351  -0.146   1.587   1.054  0.6143  0.1333  0.4582
   72HFI     H1 1352   0.178   1.783   0.910 -0.4168  0.8226  1.2044
   72HFI     H2 1353  -0.098   1.834   0.993 -0.5300  1.4034  1.6315
   73HFI     O1 1354   3.093   0.235   2.702  0.1805  0.2729 -0.4778
   73HFI     C1 1355   3.177   0.123   2.742  1.0266  0.1891  0.0997
   73HFI     C2 1356   3.131   0.074   2.879  0.7425  0.8912 -0.0907
   73HFI     F1 1357   3.216  -0.007   2.943  0.0616 -0.2349 -0.4714
   73HFI     F2 1358   3.018  -0.004   2.877  0.4782 -0.7549  0.1381
   73HFI     F3 1359   3.119   0.183   2.961  0.0838 -0.1229 -0.1254
   73HFI     C3 1360   3.327   0.165   2.737  0.2765  0.3343  0.1152
   73HFI     F4 1361   3.359   0.211   2.610 -0.5640  0.1168  0.1924
   73HFI     F5 1362   3.410   0.059   2.764 -0.6332 -0.4550 -0.1872
   73HFI     F6 1363   3.353   0.263   2.829  0.1895  0.0771 -0.1789
   73HFI     H1 1364   3.068   0.284   2.783  1.8384  2.0741 -1.0023
   73HFI     H2 1365   3.157   0.049   2.663 -1.5559 -0.1720  1.0720
   74HFI     O1 1366   1.174   2.412   0.464  0.4700  0.3828 -0.7399
   74HFI     C1 1367   1.192   2.284   0.530 -0.2164  0.2021  0.6889
   74HFI     C2 1368   1.119   2.280   0.669 -0.3002  0.7140  0.8443
   74HFI     F1 1369   1.119   2.153   0.712  0.0016  0.1950  0.2508
   74HFI     F2 1370   0.988   2.313   0.650  0.2049  0.4815  0.1594
   74HFI     F3 1371   1.162   2.362   0.770  0.0552 -0.1049 -0.2179
   74HFI     C3 1372   1.342   2.246   0.529  0.5679 -0.1015 -0.0526
   74HFI     F4 1373   1.423   2.343   0.587  0.1164 -0.5071  0.4106
   74HFI     F5 1374   1.379   2.229   0.404 -0.1338 -0.4164  0.1698
   74HFI     F6 1375   1.364   2.133   0.593  0.1978 -0.0026  0.5984
   74HFI     H1 1376   1.204   2.488   0.517 -0.4701 -0.0895  0.4805
   74HFI     H2 1377   1.137   2.212   0.467  2.0332  0.7319 -1.9725
   75HFI     O1 1378   2.927   3.004   0.404  0.4085 -0.1094 -0.1351
   75HFI     C1 1379   2.894   3.148   0.392 -0.0829  0.1887 -0.0579
   75HFI     C2 1380   2.975   3.205   0.268  0.1250 -0.3088  0.2619
   75HFI     F1 1381   2.973   3.126   0.161  0.0675 -0.5670 -0.1181
   75HFI     F2 1382   3.104   3.219   0.295  0.0107 -0.3556 -0.0017
   75HFI     F3 1383   2.926   3.323   0.229 -0.1355 -0.2985 -0.2741
   75HFI     C3 1384   2.911   3.229   0.529  0.3588  0.4148  0.2216
   75HFI     F4 1385   3.036   3.203   0.583 -0.8873 -0.0395  0.6097
   75HFI     F5 1386   2.810   3.192   0.615 -0.5838 -0.1312  0.3904
   75HFI     F6 1387   2.892   3.359   0.506  0.6325  0.2165  0.2930
   75HFI     H1 1388   2.888   2.955   0.329 -0.0602 -0.0399  0.0566
   75HFI     H2 1389   2.791   3.144   0.355 -0.0112  0.6694 -0.3115
   76HFI     O1 1390   1.984   0.214   0.581 -0.4264 -0.1945  0.3683
   76HFI     C1 1391   1.898   0.182   0.470  0.9498 -0.5928 -0.7238
   76HFI     C2 1392   1.911   0.284   0.350 -0.0262  0.1351 -0.9141
   76HFI     F1 1393   1.908   0.417   0.390 -0.4625 -0.0396 -0.5540
   76HFI     F2 1394   1.811   0.266   0.260 -0.0652 -0.6787 -0.7127
   76HFI     F3 1395   2.031   0.261   0.290 -0.1982  0.1118 -0.5161
   76HFI     C3 1396   1.753   0.162   0.524  0.4489  0.2736  0.4805
   76HFI     F4 1397   1.691   0.276   0.552  0.7397  0.3196  0.0273
   76HFI     F5 1398   1.749   0.088   0.639  0.0198  0.0889  0.6214
   76HFI     F6 1399   1.676   0.104   0.427  0.5471 -0.0934  0.0572
   76HFI     H1 1400   2.072   0.227   0.541 -0.1321 -1.2906  0.6337
   76HFI     H2 1401   1.927   0.087   0.425  0.4911 -0.7419 -0.7026
   77HFI     O1 1402   2.003   1.552   0.440  0.0847  0.6417 -0.2447
   77HFI     C1 1403   2.040   1.493   0.566  0.3416  0.0287  0.0500
   77HFI     C2 1404   2.192   1.506   0.595 -0.3910  0.1160  0.0175
   77HFI     F1 1405   2.226   1.612   0.675  0.5373  0.3085 -1.0643
   77HFI     F2 1406   2.265   1.529   0.484  0.0541 -0.2442 -0.1649
   77HFI     F3 1407   2.254   1.390   0.651  0.0060  0.4435  0.2656
   77HFI     C3 1408   1.994   1.337   0.573  0.0165  0.1935  0.1551
   77HFI     F4 1409   1.860   1.329   0.549  0.5188 -0.5904 -0.5325
   77HFI     F5 1410   2.011   1.290   0.701  0.0827  0.0603  0.1703
   77HFI     F6 1411   2.063   1.259   0.482  0.1039  0.1440 -0.1163
   77HFI     H1 1412   2.033   1.644   0.437  2.5936 -0.1803 -1.8542
   77HFI     H2 1413   1.986   1.550   0.643 -2.0240 -0.1971 -1.3749
   78HFI     O1 1414   0.282   2.108   0.237 -0.1302  0.4379 -0.2285
   78HFI     C1 1415   0.259   2.202   0.126  0.7053  0.1923  0.2370
   78HFI     C2 1416   0.149   2.306   0.164 -0.0376  0.8151 -0.3161
   78HFI     F1 1417   0.115   2.387   0.065 -0.4167 -0.1469  0.3549
   78HFI     F2 1418   0.191   2.382   0.273  0.8904  0.3905  0.0429
   78HFI     F3 1419   0.043   2.234   0.202  0.3283  0.1625 -0.5422
   78HFI     C3 1420   0.218   2.125   0.001 -0.1600  0.7277  0.6860
   78HFI     F4 1421   0.323   2.035  -0.035  0.2911  0.1291 -0.3025
   78HFI     F5 1422   0.197   2.196  -0.108 -0.2495  0.1382  0.1396
   78HFI     F6 1423   0.107   2.049   0.008  0.4414 -0.6058  0.2474
   78HFI     H1 1424   0.205   2.065   0.278  0.0686  0.0971 -0.2094
   78HFI     H2 1425   0.352   2.259   0.108  0.2805  0.1465 -2.3332
   79HFI     O1 1426   1.161   2.474   0.181  0.0240 -0.1457 -0.0875
   79HFI     C1 1427   1.067   2.486   0.067 -0.0824 -0.3063  0.2268
   79HFI     C2 1428   0.934   2.404   0.078 -0.0925  0.6199 -0.3556
   79HFI     F1 1429   0.883   2.423   0.202  0.1834 -0.2876  0.2542
   79HFI     F2 1430   0.962   2.274   0.057 -0.4464 -0.2356 -0.2342
   79HFI     F3 1431   0.841   2.438  -0.010  0.0077  0.0752 -0.1211
   79HFI     C3 1432   1.136   2.459  -0.071  0.3563  0.4640  0.0473
   79HFI     F4 1433   1.045   2.471  -0.174  0.2805  0.0433 -0.5711
   79HFI     F5 1434   1.203   2.345  -0.085 -0.2901  0.1523 -0.2943
   79HFI     F6 1435   1.218   2.562  -0.098 -0.0890 -0.1460  0.1289
   79HFI     H1 1436   1.114   2.455   0.263 -0.0508  2.0126  0.4042
   79HFI     H2 1437   1.030   2.589   0.065 -0.8026 -0.5401  1.2300
   80HFI     O1 1438   2.091   1.834   2.765 -0.1738 -0.3648 -0.0217
   80HFI     C1 1439   2.004   1.838   2.881  0.5012 -0.2106 -0.8083
   80HFI     C2 1440   1.916   1.964   2.869  0.3542 -0.3851  0.0419
   80HFI     F1 1441   1.803   1.964   2.943 -0.2099 -0.2560 -0.5484
   80HFI     F2 1442   1.879   1.988   2.742 -0.3093 -0.1830  0.7729
   80HFI     F3 1443   1.983   2.076   2.912  0.2628  0.2309 -0.3309
   80HFI     C3 1444   2.077   1.809   3.018  0.5401  0.7657 -0.2554
   80HFI     F4 1445   2.182   1.890   3.014  0.6462  0.5884 -0.2483
   80HFI     F5 1446   2.129   1.686   3.019  0.0269 -0.1401  0.7676
   80HFI     F6 1447   1.997   1.838   3.125  0.1676  0.6457 -0.1961
   80HFI     H1 1448   2.164   1.891   2.793 -1.4760  0.8835  0.9044
   80HFI     H2 1449   1.923   1.764   2.875 -1.3794  1.7505  0.0304
   81HFI     O1 1450   1.650   1.599   1.541 -0.1151  0.1736 -0.3884
   81HFI     C1 1451   1.797   1.588   1.516 -0.4291  0.3295 -1.4410
   81HFI     C2 1452   1.858   1.711   1.444 -0.2486  0.0910 -0.4421
   81HFI     F1 1453   1.817   1.826   1.492  0.3246  0.4441 -0.1806
   81HFI     F2 1454   1.832   1.707   1.308 -0.0951 -0.0112 -0.0172
   81HFI     F3 1455   1.991   1.714   1.455 -0.2663 -0.2954 -0.2421
   81HFI     C3 1456   1.833   1.458   1.452 -0.2748  1.3034 -0.3268
   81HFI     F4 1457   1.815   1.353   1.538 -0.1565  0.0603 -0.3028
   81HFI     F5 1458   1.966   1.451   1.408 -0.3056 -0.3955  0.3679
   81HFI     F6 1459   1.746   1.434   1.350 -0.6997  0.1654  0.1512
   81HFI     H1 1460   1.600   1.548   1.475 -0.3853 -1.1550  0.8038
   81HFI     H2 1461   1.841   1.583   1.617 -0.8719 -0.3438 -1.2820
   82HFI     O1 1462   3.152   1.284   0.446  0.1846 -0.1646 -0.2154
   82HFI     C1 1463   3.258   1.355   0.526  0.2593  0.1124  0.2003
   82HFI     C2 1464   3.276   1.506   0.476  0.0862 -0.5978  0.0432
   82HFI     F1 1465   3.330   1.519   0.353 -0.1974  0.3017 -0.0316
   82HFI     F2 1466   3.360   1.563   0.562 -0.0330  0.3276  0.3038
   82HFI     F3 1467   3.155   1.570   0.475 -0.0538  0.2744 -0.3699
   82HFI     C3 1468   3.392   1.278   0.537  0.0559 -0.3684  0.0105
   82HFI     F4 1469   3.371   1.192   0.637 -0.1561  0.0902  0.2943
   82HFI     F5 1470   3.506   1.348   0.570 -0.4129  0.1853 -0.7904
   82HFI     F6 1471   3.414   1.205   0.428  0.0345  0.4564 -0.3475
   82HFI     H1 1472   3.166   1.188   0.450  0.2358 -0.1551 -0.1451
   82HFI     H2 1473   3.215   1.370   0.626 -3.1886 -1.9360 -0.9085
   83HFI     O1 1474   3.109   1.977   0.992  0.5699  0.5704  0.2474
   83HFI     C1 1475   3.099   2.104   1.064 -0.5364  0.1791  0.6234
   83HFI     C2 1476   2.952   2.142   1.109 -0.6321 -0.5230 -0.1913
   83HFI     F1 1477   2.950   2.238   1.207  0.0255 -0.2210 -0.3812
   83HFI     F2 1478   2.887   2.034   1.151  0.2839 -0.2120  0.5554
   83HFI     F3 1479   2.883   2.183   1.000 -0.2046 -0.1614 -0.8314
   83HFI     C3 1480   3.173   2.216   0.999  0.2590 -0.3633 -0.7353
   83HFI     F4 1481   3.191   2.329   1.077 -0.3746  0.1679  0.4132
   83HFI     F5 1482   3.114   2.256   0.886 -0.2603  0.3361  0.6164
   83HFI     F6 1483   3.292   2.167   0.960  0.4809  1.0461  0.3970
   83HFI     H1 1484   3.067   1.988   0.905  2.4668  1.0484 -0.6309
   83HFI     H2 1485   3.158   2.087   1.155  0.5172  0.4649 -0.0010
   84HFI     O1 1486   0.184   1.988   2.675 -0.3930  0.3177 -0.4588
   84HFI     C1 1487   0.102   1.912   2.756 -0.5740 -0.2166 -0.6784
   84HFI     C2 1488  -0.046   1.925   2.726  0.6534 -0.0590  0.8172
   84HFI     F1 1489  -0.103   2.031   2.792  0.3773  0.8097 -0.0132
   84HFI     F2 1490  -0.110   1.813   2.757 -0.2926  0.0066 -0.2674
   84HFI     F3 1491  -0.075   1.948   2.598  0.4021 -0.6095  0.0056
   84HFI     C3 1492   0.134   1.929   2.911  0.0842  0.3044  0.2185
   84HFI     F4 1493   0.107   2.058   2.964  0.1959  0.3508  0.1305
   84HFI     F5 1494   0.267   1.905   2.941 -0.0128 -0.3865 -0.1575
   84HFI     F6 1495   0.071   1.830   2.987 -0.4486 -0.0572  0.0485
   84HFI     H1 1496   0.205   2.076   2.712  1.3333 -0.5626  0.6886
   84HFI     H2 1497   0.122   1.806   2.739 -0.9572 -0.1228 -1.7575
   85HFI     O1 1498   3.199   2.321   1.431  0.6383  0.2977  0.4337
   85HFI     C1 1499   3.287   2.242   1.504  0.6491 -0.6560 -0.2789
   85HFI     C2 1500   3.442   2.267   1.478 -0.5616 -1.1784 -0.0962
   85HFI     F1 1501   3.517   2.191   1.551  0.6037  0.0244  0.4133
   85HFI     F2 1502   3.473   2.396   1.509 -0.3127  0.3227  0.1155
   85HFI     F3 1503   3.474   2.255   1.346 -0.0803  0.2147  0.1322
   85HFI     C3 1504   3.248   2.094   1.496 -0.4884 -0.0393 -0.1958
   85HFI     F4 1505   3.259   2.046   1.369  0.3427 -0.2019  0.2056
   85HFI     F5 1506   3.120   2.072   1.531 -0.2772  0.5751  0.2830
   85HFI     F6 1507   3.316   2.016   1.578  0.1495  0.3973  0.4877
   85HFI     H1 1508   3.233   2.411   1.428 -0.4233  0.6750 -2.4166
   85HFI     H2 1509   3.275   2.264   1.610 -0.2526 -0.6968 -0.3721
   86HFI     O1 1510   2.251   2.575   1.365 -0.0866 -0.3429 -0.3247
   86HFI     C1 1511   2.379   2.641   1.399  0.0042  0.5222 -0.2196
   86HFI     C2 1512   2.386   2.682   1.552 -0.1881  0.0910  0.3487
   86HFI     F1 1513   2.307   2.784   1.580  0.3223 -0.0989  0.2859
   86HFI     F2 1514   2.506   2.709   1.592  0.0945  0.1783 -0.0352
   86HFI     F3 1515   2.341   2.570   1.624 -0.0013  0.1540  0.1176
   86HFI     C3 1516   2.410   2.759   1.304 -0.1178 -0.1818  0.1930
   86HFI     F4 1517   2.314   2.857   1.292 -0.5876 -0.1235 -0.2294
   86HFI     F5 1518   2.430   2.696   1.185  0.3644  0.2250 -0.2457
   86HFI     F6 1519   2.525   2.827   1.337 -0.5520 -0.0632 -0.3026
   86HFI     H1 1520   2.183   2.609   1.425  0.0370  0.5079 -0.6532
   86HFI     H2 1521   2.460   2.569   1.384 -0.0138  0.4755 -0.0977
   87HFI     O1 1522   3.161   2.063   0.714  0.2093 -0.0972 -0.0994
   87HFI     C1 1523   3.289   2.097   0.641 -0.5954  0.6795  0.0532
   87HFI     C2 1524   3.256   2.227   0.559 -0.9177 -0.0741  0.1305
   87HFI     F1 1525   3.203   2.326   0.635  0.5394 -0.1186 -0.5260
   87HFI     F2 1526   3.181   2.212   0.449 -0.1818 -0.3323 -0.1907
   87HFI     F3 1527   3.372   2.267   0.517  0.3405  0.4299  0.1346
   87HFI     C3 1528   3.339   1.975   0.559  0.3140  0.2587  0.8586
   87HFI     F4 1529   3.240   1.934   0.475 -0.0414 -0.0127 -0.6327
   87HFI     F5 1530   3.374   1.873   0.645 -0.7097 -0.5610 -0.4584
   87HFI     F6 1531   3.443   2.010   0.475  0.1979  0.1076  0.3748
   87HFI     H1 1532   3.093   2.054   0.645  1.2348  1.2772 -1.2926
   87HFI     H2 1533   3.363   2.120   0.718 -0.1540  3.1368 -1.0544
   88HFI     O1 1534   0.338   0.361   2.967  0.4708 -0.2639 -0.0232
   88HFI     C1 1535   0.233   0.461   2.957 -0.3066 -0.4367 -0.3590
   88HFI     C2 1536   0.224   0.502   2.810  0.3667 -0.1933 -0.9820
   88HFI     F1 1537   0.323   0.580   2.768  0.3498  0.3281  0.6836
   88HFI     F2 1538   0.108   0.566   2.785  0.2707 -0.0170  0.2414
   88HFI     F3 1539   0.221   0.395   2.735  0.3215  0.0990 -0.4472
   88HFI     C3 1540   0.261   0.579   3.055  0.0117 -0.0357  0.5068
   88HFI     F4 1541   0.172   0.680   3.038 -0.1750 -0.6163  0.6428
   88HFI     F5 1542   0.388   0.640   3.036  1.1425  0.4108  0.0240
   88HFI     F6 1543   0.254   0.538   3.180  0.7921  0.2733  0.4475
   88HFI     H1 1544   0.365   0.340   2.876  0.2421  0.1249 -0.1818
   88HFI     H2 1545   0.135   0.421   2.988 -0.3301 -0.6491 -0.6971
   89HFI     O1 1546   2.283   0.261   1.520  0.3851  0.4510  0.2484
   89HFI     C1 1547   2.198   0.375   1.496 -0.2959  0.1554 -0.2011
   89HFI     C2 1548   2.045   0.331   1.506 -0.1836 -0.3323  0.3145
   89HFI     F1 1549   1.963   0.446   1.520 -0.1136 -0.2418 -0.3480
   89HFI     F2 1550   2.034   0.250   1.617  0.3999 -0.4163 -0.0232
   89HFI     F3 1551   2.014   0.253   1.399  0.1431  0.5035 -0.2010
   89HFI     C3 1552   2.230   0.442   1.358  0.2482 -0.0834  0.0365
   89HFI     F4 1553   2.147   0.546   1.327 -0.4315 -0.6801  0.1661
   89HFI     F5 1554   2.219   0.355   1.260  0.2672  0.1624  0.6393
   89HFI     F6 1555   2.350   0.495   1.350 -0.2014 -0.2109  0.6307
   89HFI     H1 1556   2.235   0.182   1.549  2.5593 -0.3393  1.7941
   89HFI     H2 1557   2.216   0.450   1.574  1.8572  2.5293 -2.9117
   90HFI     O1 1558   2.685   0.423   1.266  0.1424  0.1920  0.2132
   90HFI     C1 1559   2.768   0.482   1.378  0.1372 -0.7982 -0.7890
   90HFI     C2 1560   2.886   0.392   1.416 -0.6813  0.6640  0.1279
   90HFI     F1 1561   2.835   0.262   1.443  0.3181  0.3817  0.3872
   90HFI     F2 1562   2.956   0.441   1.523 -0.0670 -0.1731  0.4301
   90HFI     F3 1563   2.970   0.390   1.315 -0.2890 -0.0934 -0.2665
   90HFI     C3 1564   2.689   0.542   1.504 -0.1036 -0.1812 -0.1321
   90HFI     F4 1565   2.581   0.617   1.459 -0.0194  0.4166 -0.7452
   90HFI     F5 1566   2.771   0.617   1.591  0.2338  0.4961 -0.0150
   90HFI     F6 1567   2.633   0.437   1.577  0.3883  0.2895 -0.0607
   90HFI     H1 1568   2.609   0.376   1.306  0.5259 -1.8336 -1.3950
   90HFI     H2 1569   2.818   0.568   1.332  0.6728 -1.2952 -1.1452
   91HFI     O1 1570   3.080   1.776   0.768  0.1456 -0.3584  0.0087
   91HFI     C1 1571   2.947   1.713   0.748 -0.1502 -0.3078 -0.4900
   91HFI     C2 1572   2.835   1.822   0.711  0.3033 -0.1715  0.2376
   91HFI     F1 1573   2.868   1.883   0.596 -0.0689  0.4912  0.1114
   91HFI     F2 1574   2.820   1.925   0.799  0.0380  0.6225 -0.2770
   91HFI     F3 1575   2.708   1.767   0.693 -0.1235 -0.3897  0.0242
   91HFI     C3 1576   2.914   1.622   0.869 -0.4144 -0.2114 -0.0917
   91HFI     F4 1577   2.818   1.537   0.834  0.0944  0.0267 -0.2880
   91HFI     F5 1578   2.883   1.684   0.983 -0.4955  0.1927 -0.2887
   91HFI     F6 1579   3.023   1.540   0.897 -0.1295 -0.2227  0.0510
   91HFI     H1 1580   3.152   1.713   0.787  0.6615  0.2637  0.1790
   91HFI     H2 1581   2.960   1.643   0.664 -0.8957 -0.6531 -0.3246
   92HFI     O1 1582   1.514   2.920   0.890 -0.2332  0.0834 -0.1681
   92HFI     C1 1583   1.545   2.800   0.959  0.1488  0.6699  0.2716
   92HFI     C2 1584   1.540   2.683   0.848 -0.1329  0.4100  0.0496
   92HFI     F1 1585   1.658   2.667   0.784  0.2428 -0.0311  0.4448
   92HFI     F2 1586   1.453   2.716   0.751  0.2179 -0.2558 -0.1959
   92HFI     F3 1587   1.509   2.558   0.900  0.1065 -0.2101 -0.8470
   92HFI     C3 1588   1.447   2.777   1.078 -0.2357 -0.3211  0.7342
   92HFI     F4 1589   1.326   2.741   1.030  0.1374  0.1520 -0.0056
   92HFI     F5 1590   1.434   2.885   1.153 -0.1580  0.0691  0.1242
   92HFI     F6 1591   1.493   2.679   1.160  0.5475 -0.3953  0.6645
   92HFI     H1 1592   1.428   2.909   0.845 -1.0516 -0.3667  1.4429
   92HFI     H2 1593   1.648   2.809   0.998 -0.4203  1.6254  1.5771
   93HFI     O1 1594   1.290   1.411   0.318  0.5187 -0.5168 -0.6100
   93HFI     C1 1595   1.326   1.270   0.344  0.1562 -0.1776 -0.2060
   93HFI     C2 1596   1.241   1.164   0.263 -1.0760 -0.2545  0.0600
   93HFI     F1 1597   1.113   1.155   0.307 -0.7602  0.3278 -0.2593
   93HFI     F2 1598   1.302   1.045   0.268 -0.5948  0.4096  0.0317
   93HFI     F3 1599   1.235   1.207   0.134  0.2237 -0.0407  0.2989
   93HFI     C3 1600   1.335   1.242   0.501  0.1857  0.5525  0.6821
   93HFI     F4 1601   1.430   1.325   0.557 -0.3591 -0.3352  0.4639
   93HFI     F5 1602   1.372   1.120   0.528  0.3011  0.0010  0.0792
   93HFI     F6 1603   1.217   1.261   0.564 -0.1026  0.0279 -0.7649
   93HFI     H1 1604   1.214   1.440   0.370  2.4860  0.9895  1.5412
   93HFI     H2 1605   1.427   1.262   0.301  0.5076  2.1411  0.1382
   94HFI     O1 1606   1.566   1.137   0.120  0.2190 -0.0063  0.3271
   94HFI     C1 1607   1.690   1.206   0.084  0.4808  0.7852  0.2549
   94HFI     C2 1608   1.780   1.112  -0.009 -0.1270  0.1235 -0.1892
   94HFI     F1 1609   1.714   1.102  -0.124  0.5656  0.8919 -0.0740
   94HFI     F2 1610   1.808   0.991   0.043  0.5084 -0.0176  0.2717
   94HFI     F3 1611   1.901   1.168  -0.037  0.2852  0.0133 -0.0545
   94HFI     C3 1612   1.764   1.255   0.220  0.6600  1.0055  0.4243
   94HFI     F4 1613   1.688   1.335   0.293 -0.2365 -0.1014 -0.5534
   94HFI     F5 1614   1.874   1.323   0.182 -0.2860  0.6615 -0.3326
   94HFI     F6 1615   1.805   1.156   0.298 -0.7278 -0.4045 -0.4361
   94HFI     H1 1616   1.534   1.073   0.054 -0.5649  1.5474 -0.8369
   94HFI     H2 1617   1.668   1.300   0.032  2.0616 -0.2581 -2.3385
   95HFI     O1 1618   0.773   3.053   3.264 -0.4125  0.4427  0.3469
   95HFI     C1 1619   0.880   3.160   3.278  0.0182 -0.2840 -0.0808
   95HFI     C2 1620   0.867   3.270   3.392 -0.2154 -0.0332 -0.3554
   95HFI     F1 1621   0.981   3.336   3.407 -0.6774  0.2724 -0.1808
   95HFI     F2 1622   0.842   3.210   3.508  0.1395  0.1013 -0.0942
   95HFI     F3 1623   0.764   3.356   3.368 -0.2270  0.0113  0.0520
   95HFI     C3 1624   0.889   3.236   3.143  0.6783 -0.1880 -0.4344
   95HFI     F4 1625   0.965   3.355   3.144  0.2074  0.1462 -0.2524
   95HFI     F5 1626   0.764   3.266   3.101 -0.1848 -0.3773 -0.1385
   95HFI     F6 1627   0.934   3.145   3.054  0.0448  0.4900 -0.3628
   95HFI     H1 1628   0.732   3.065   3.177 -1.1354  2.9661  0.9847
   95HFI     H2 1629   0.981   3.117   3.287  1.0380  1.4704 -2.5892
   96HFI     O1 1630   2.147   0.758   2.730 -0.4073  0.1214  0.3551
   96HFI     C1 1631   2.173   0.888   2.797  0.0225 -0.1889  0.4398
   96HFI     C2 1632   2.063   1.006   2.775 -0.2878 -0.4943 -0.6188
   96HFI     F1 1633   1.938   0.959   2.814 -0.2043 -0.0259  0.1798
   96HFI     F2 1634   2.053   1.049   2.652  0.1224 -0.2472  0.6015
   96HFI     F3 1635   2.095   1.121   2.850  0.3993  0.0218 -0.0507
   96HFI     C3 1636   2.316   0.944   2.772 -0.4254 -0.0508  0.2571
   96HFI     F4 1637   2.407   0.846   2.776 -0.1057  0.1842 -0.2020
   96HFI     F5 1638   2.350   1.043   2.861 -0.5101 -0.2008 -0.1860
   96HFI     F6 1639   2.329   0.993   2.650 -0.2883 -0.0388 -0.3745
   96HFI     H1 1640   2.141   0.771   2.633 -0.0625 -0.6020  0.2353
   96HFI     H2 1641   2.161   0.864   2.904 -0.7424  0.3522  0.4826
   97HFI     O1 1642   0.422   0.573   1.364 -0.4300  0.5707  0.2391
   97HFI     C1 1643   0.499   0.520   1.478  0.0637 -0.1732 -0.7175
   97HFI     C2 1644   0.652   0.527   1.464 -0.2892 -0.5208 -0.1255
   97HFI     F1 1645   0.695   0.447   1.364 -0.1888  0.0341  0.0529
   97HFI     F2 1646   0.719   0.491   1.573 -0.0503  0.3229 -0.1316
   97HFI     F3 1647   0.688   0.656   1.429  0.2876 -0.2365  0.4169
   97HFI     C3 1648   0.451   0.371   1.500  0.7571  0.0379 -0.0853
   97HFI     F4 1649   0.326   0.370   1.565 -0.0796 -0.2770 -0.4486
   97HFI     F5 1650   0.532   0.289   1.574 -0.1550 -0.3283  0.2377
   97HFI     F6 1651   0.437   0.305   1.390  0.3791  0.0078  0.3488
   97HFI     H1 1652   0.450   0.665   1.351  0.2164 -0.0450 -3.1626
   97HFI     H2 1653   0.473   0.580   1.567  2.8030 -1.0126  0.6971
   98HFI     O1 1654   2.241   2.249   1.410  0.0932 -0.5487 -0.2162
   98HFI     C1 1655   2.236   2.145   1.515  0.0376 -0.1013  0.3340
   98HFI     C2 1656   2.347   2.042   1.492 -0.6876  0.2611  0.0567
   98HFI     F1 1657   2.468   2.104   1.493 -0.3992  0.0805  0.2476
   98HFI     F2 1658   2.331   1.981   1.369 -0.0726 -0.0934 -0.1657
   98HFI     F3 1659   2.359   1.941   1.588  0.1621 -0.4713 -0.0204
   98HFI     C3 1660   2.098   2.075   1.534 -0.4627 -0.1834  0.9329
   98HFI     F4 1661   2.051   2.044   1.411 -0.1224 -0.4977 -0.0457
   98HFI     F5 1662   2.004   2.156   1.588 -0.5011 -0.2029 -0.5231
   98HFI     F6 1663   2.095   1.964   1.609  0.3445 -0.0042  0.5388
   98HFI     H1 1664   2.216   2.205   1.327 -0.8757 -1.7942  0.7059
   98HFI     H2 1665   2.249   2.187   1.616 -0.4704  0.8258  0.0214
   99HFI     O1 1666   0.978   0.748   0.691 -0.3217  0.3328  1.0115
   99HFI     C1 1667   0.864   0.784   0.600  0.9084  0.2695  0.2166
   99HFI     C2 1668   0.806   0.647   0.550  0.2355 -0.1988  0.7862
   99HFI     F1 1669   0.909   0.576   0.505 -0.3097 -0.1922  0.0788
   99HFI     F2 1670   0.719   0.670   0.452 -0.3164 -0.0318  0.3112
   99HFI     F3 1671   0.745   0.579   0.645  0.2964 -0.0485 -0.5788
   99HFI     C3 1672   0.914   0.881   0.488 -0.1933 -0.2150 -0.1334
   99HFI     F4 1673   0.812   0.941   0.423  0.2854  0.0452 -0.3668
   99HFI     F5 1674   0.989   0.816   0.394 -0.4545 -0.3071  0.4283
   99HFI     F6 1675   0.985   0.981   0.540  0.1394 -0.1391  0.1844
   99HFI     H1 1676   1.015   0.665   0.658  0.5576  0.8705  0.6135
   99HFI     H2 1677   0.784   0.826   0.661  1.0320  1.4133 -0.3915
  100HFI     O1 1678   0.442   2.061   1.591 -0.4456 -0.1624  0.3770
  100HFI     C1 1679   0.454   1.980   1.472  0.7039 -0.0150  0.2018
  100HFI     C2 1680   0.442   2.068   1.343  0.1390  0.7378  0.3544
  100HFI     F1 1681   0.406   1.995   1.236  0.5860 -0.1773 -0.0663
  100HFI     F2 1682   0.556   2.123   1.302 -0.9024 -0.0738  0.2104
  100HFI     F3 1683   0.346   2.165   1.356 -0.5915  0.0110 -0.2135
  100HFI     C3 1684   0.346   1.872   1.482 -0.9652 -0.3975  0.4779
  100HFI     F4 1685   0.349   1.813   1.610 -0.0973 -0.2417 -0.7963
  100HFI     F5 1686   0.346   1.774   1.388 -0.1043  0.0785  0.0546
  100HFI     F6 1687   0.223   1.929   1.482 -0.1863  0.3727  0.0519
  100HFI     H1 1688   0.357   2.108   1.598 -1.0462 -0.9619 -1.3473
  100HFI     H2 1689   0.552   1.930   1.470 -0.1069 -1.6066 -0.9410
  101HFI     O1 1690   2.440   1.228   0.829 -0.1853 -0.4235 -0.1264
  101HFI     C1 1691   2.511   1.312   0.917 -0.3685  0.5236 -0.2488
  101HFI     C2 1692   2.585   1.233   1.021 -0.4926  0.3681  0.4853
  101HFI     F1 1693   2.494   1.179   1.108  0.1381  0.4375  0.0242
  101HFI     F2 1694   2.666   1.312   1.094 -0.7376 -0.8452 -0.1512
  101HFI     F3 1695   2.663   1.135   0.969 -0.2247 -0.0655  0.4708
  101HFI     C3 1696   2.416   1.418   0.977 -0.2050 -0.3149  0.3607
  101HFI     F4 1697   2.469   1.494   1.075  0.1239  0.4428  0.3292
  101HFI     F5 1698   2.301   1.360   1.017  0.0547  0.4393 -0.2116
  101HFI     F6 1699   2.369   1.508   0.891 -0.2360  0.3125  0.2287
  101HFI     H1 1700   2.351   1.226   0.868  1.0906  0.3108  2.8918
  101HFI     H2 1701   2.589   1.366   0.861  0.1889 -0.9465 -0.9004
  102HFI     O1 1702   1.621   3.141   3.306 -0.4419 -0.3409  0.0556
  102HFI     C1 1703   1.703   3.213   3.210  0.4284  0.0411 -0.0498
  102HFI     C2 1704   1.840   3.229   3.268 -0.5663  0.0780  0.1845
  102HFI     F1 1705   1.834   3.320   3.364 -0.4601 -0.3492 -0.2062
  102HFI     F2 1706   1.934   3.273   3.179  0.3953 -0.5612 -0.5336
  102HFI     F3 1707   1.896   3.121   3.326 -0.1470  0.2498 -0.1053
  102HFI     C3 1708   1.630   3.344   3.164  0.0517 -0.0243 -0.0876
  102HFI     F4 1709   1.722   3.422   3.107  0.3238 -0.0938 -0.4098
  102HFI     F5 1710   1.576   3.410   3.273 -0.3387  0.2495  0.1072
  102HFI     F6 1711   1.531   3.309   3.080  0.5999  1.0566 -0.0899
  102HFI     H1 1712   1.667   3.146   3.391  0.2921 -0.2269 -0.3467
  102HFI     H2 1713   1.714   3.152   3.120  0.5911  0.6482 -0.4469
  103HFI     O1 1714   0.100   1.339   1.290 -0.3216  0.0210  0.5446
  103HFI     C1 1715   0.042   1.393   1.411 -0.1149 -0.2938 -0.0883
  103HFI     C2 1716   0.152   1.446   1.510  0.1977  0.2071  0.5053
  103HFI     F1 1717   0.235   1.353   1.560  0.0913  0.3863  0.6985
  103HFI     F2 1718   0.094   1.524   1.602  0.1561  0.6002  0.2405
  103HFI     F3 1719   0.230   1.528   1.440  0.1700  0.2862  0.0541
  103HFI     C3 1720  -0.056   1.291   1.481  0.2228 -0.8390 -0.0366
  103HFI     F4 1721   0.016   1.186   1.524 -0.2463  0.3816  0.6515
  103HFI     F5 1722  -0.150   1.243   1.397 -0.3303  0.2087  0.0022
  103HFI     F6 1723  -0.124   1.356   1.587 -0.6261  0.0790  0.1280
  103HFI     H1 1724   0.197   1.334   1.301 -0.4464 -1.0648  1.3125
  103HFI     H2 1725  -0.017   1.484   1.394  1.4057  0.5601 -0.9242
  104HFI     O1 1726   3.224   2.938   0.540  1.0230 -0.0199 -0.4185
  104HFI     C1 1727   3.327   2.907   0.648  0.7920  0.3439 -0.0764
  104HFI     C2 1728   3.322   2.758   0.700 -0.4221 -0.3575  0.0368
  104HFI     F1 1729   3.340   2.672   0.603 -0.0768  0.1728 -0.3438
  104HFI     F2 1730   3.205   2.735   0.755  0.3074 -0.0737 -0.2915
  104HFI     F3 1731   3.413   2.728   0.794  0.0701  0.0026 -0.0950
  104HFI     C3 1732   3.342   3.025   0.754 -0.9015 -0.4736  0.7472
  104HFI     F4 1733   3.370   3.143   0.694  0.2168 -0.2303  0.4541
  104HFI     F5 1734   3.447   2.993   0.834 -0.0564  0.5919  0.6754
  104HFI     F6 1735   3.230   3.034   0.829 -0.1147 -0.3123 -0.4298
  104HFI     H1 1736   3.141   2.962   0.584  1.9207 -0.0361  1.3115
  104HFI     H2 1737   3.423   2.911   0.595  2.4670 -1.7748  2.6777
  105HFI     O1 1738   3.325   0.549   3.404 -0.4547 -0.1994  0.5528
  105HFI     C1 1739   3.214   0.566   3.313 -0.1479  0.0431  0.0810
  105HFI     C2 1740   3.074   0.552   3.375 -0.5725  0.7958  0.3494
  105HFI     F1 1741   3.048   0.653   3.470  0.1445  0.1784  0.0135
  105HFI     F2 1742   3.057   0.433   3.434 -0.0010 -0.6978 -0.1238
  105HFI     F3 1743   2.982   0.560   3.280  0.2195 -0.8694  0.3093
  105HFI     C3 1744   3.230   0.476   3.189 -0.2424  0.3040 -0.1263
  105HFI     F4 1745   3.359   0.489   3.148 -0.3327 -0.4859  0.0944
  105HFI     F5 1746   3.156   0.500   3.080  0.1997  0.2665  0.3383
  105HFI     F6 1747   3.216   0.340   3.217 -0.1129 -0.1636 -0.2026
  105HFI     H1 1748   3.337   0.454   3.420  1.1071 -0.2694 -0.9790
  105HFI     H2 1749   3.218   0.668   3.274  0.4532  1.0949  2.7714
  106HFI     O1 1750   3.218   1.382   3.616 -0.3968 -0.3060  0.6773
  106HFI     C1 1751   3.264   1.280   3.532  0.4085 -0.1593  0.6982
  106HFI     C2 1752   3.329   1.329   3.395  0.9723  0.7288  0.8432
  106HFI     F1 1753   3.237   1.396   3.320  0.2962  0.4214 -0.3953
  106HFI     F2 1754   3.371   1.227   3.320  0.7901  0.1695  0.6365
  106HFI     F3 1755   3.430   1.411   3.423  0.1655 -0.3521 -0.3776
  106HFI     C3 1756   3.163   1.168   3.509  0.3931 -0.7894  0.0809
  106HFI     F4 1757   3.101   1.139   3.625 -0.0615 -0.2916  0.0211
  106HFI     F5 1758   3.211   1.050   3.461 -0.6662 -0.4615  0.4256
  106HFI     F6 1759   3.061   1.210   3.425  0.2201  0.3208 -0.3421
  106HFI     H1 1760   3.162   1.443   3.565  1.7423  1.4875  0.4198
  106HFI     H2 1761   3.344   1.224   3.581 -0.8096  0.0662  3.0445
  107HFI     O1 1762   2.663   1.137   1.547  0.0424  0.2374  0.4947
  107HFI     C1 1763   2.761   1.112   1.447 -0.2505 -0.0932 -0.2227
  107HFI     C2 1764   2.714   1.002   1.347  0.6941 -0.2554  0.8122
  107HFI     F1 1765   2.588   1.024   1.326  0.3695 -0.3323 -0.3915
  107HFI     F2 1766   2.726   0.875   1.399 -0.4940  0.3010 -0.3442
  107HFI     F3 1767   2.777   1.010   1.229 -0.4272  0.3655  0.2639
  107HFI     C3 1768   2.897   1.089   1.512 -0.0184 -0.6237 -0.1069
  107HFI     F4 1769   2.988   1.047   1.417 -0.2905 -0.6539  0.3778
  107HFI     F5 1770   2.890   0.993   1.608  0.0822 -0.2628 -0.3850
  107HFI     F6 1771   2.948   1.204   1.564  0.1751 -0.1130  0.1363
  107HFI     H1 1772   2.619   1.055   1.575 -2.3085  0.9345 -1.0133
  107HFI     H2 1773   2.772   1.205   1.389 -0.0907  0.0022 -0.0431
  108HFI     O1 1774   1.702   0.632   0.851  0.0570  0.2699 -0.2591
  108HFI     C1 1775   1.773   0.518   0.892  0.0934 -0.0440  0.2238
  108HFI     C2 1776   1.785   0.501   1.048  0.8751 -0.1137 -0.2432
  108HFI     F1 1777   1.858   0.602   1.096 -0.0584  0.0542 -0.1501
  108HFI     F2 1778   1.840   0.385   1.073 -0.0371  0.2247  0.3013
  108HFI     F3 1779   1.662   0.502   1.112  0.2018 -0.3107 -0.3606
  108HFI     C3 1780   1.897   0.496   0.816  0.1920 -0.0601 -0.2073
  108HFI     F4 1781   1.982   0.598   0.828 -0.3774  0.0606  0.5187
  108HFI     F5 1782   1.869   0.473   0.684  0.4539 -0.0646 -0.8122
  108HFI     F6 1783   1.957   0.381   0.852 -0.3809  0.2833  0.2988
  108HFI     H1 1784   1.755   0.708   0.880  1.6555  0.0936 -2.5504
  108HFI     H2 1785   1.711   0.432   0.864  1.4453 -0.4393 -1.5738
  109HFI     O1 1786   3.368   1.543   0.023 -0.3955 -0.0053 -0.3997
  109HFI     C1 1787   3.507   1.571   0.064  0.6835 -0.3487  0.0083
  109HFI     C2 1788   3.531   1.720   0.095  0.5558  0.9247  0.5923
  109HFI     F1 1789   3.456   1.768   0.203 -0.5376 -0.6559 -0.5694
  109HFI     F2 1790   3.514   1.792  -0.017 -0.2097 -0.0254  0.7161
  109HFI     F3 1791   3.664   1.740   0.130 -0.5431 -0.1511 -0.2165
  109HFI     C3 1792   3.618   1.514  -0.028  0.3344 -0.5827 -0.2946
  109HFI     F4 1793   3.603   1.386  -0.048  0.8947  0.2460  0.1214
  109HFI     F5 1794   3.740   1.527   0.027  0.1826 -0.4480 -0.1957
  109HFI     F6 1795   3.634   1.576  -0.146 -0.2841 -0.2660  0.3804
  109HFI     H1 1796   3.361   1.571  -0.070  1.6476  1.8078 -0.0339
  109HFI     H2 1797   3.517   1.516   0.159 -1.3044 -3.8292 -1.6669
  110HFI     O1 1798   0.651   1.096   2.682  0.3138  0.0252 -0.3526
  110HFI     C1 1799   0.578   1.088   2.809  0.6924  0.1227  1.0252
  110HFI     C2 1800   0.673   1.082   2.933 -0.3705 -0.1512 -0.4732
  110HFI     F1 1801   0.603   1.079   3.049  0.3719  0.5344  0.3846
  110HFI     F2 1802   0.759   1.186   2.928 -0.5544 -0.2230 -0.2595
  110HFI     F3 1803   0.751   0.971   2.928 -0.4797  0.2113 -0.1683
  110HFI     C3 1804   0.473   0.970   2.801 -0.0949 -0.1363  0.1124
  110HFI     F4 1805   0.389   1.004   2.702 -0.2137  0.3449  0.2994
  110HFI     F5 1806   0.405   0.956   2.915  0.1318 -0.3148 -0.3919
  110HFI     F6 1807   0.533   0.852   2.768 -0.2177 -0.5690  0.5337
  110HFI     H1 1808   0.747   1.101   2.696  0.3051  1.0505 -0.6002
  110HFI     H2 1809   0.506   1.168   2.833  0.0621 -0.0408 -0.2378
  111HFI     O1 1810   2.214   1.392   1.585 -0.2426 -0.0406  0.1752
  111HFI     C1 1811   2.351   1.424   1.540 -0.3927 -0.2985  0.3600
  111HFI     C2 1812   2.382   1.574   1.509 -0.0599  0.6056  0.1377
  111HFI     F1 1813   2.319   1.609   1.397  0.2726 -0.2428 -0.3926
  111HFI     F2 1814   2.518   1.599   1.490 -0.5391  0.1111  0.4017
  111HFI     F3 1815   2.330   1.655   1.604  0.0209 -0.3273  0.1510
  111HFI     C3 1816   2.390   1.333   1.422 -0.1768  0.7332  0.0717
  111HFI     F4 1817   2.510   1.355   1.370  0.2862  0.2209  0.4948
  111HFI     F5 1818   2.300   1.353   1.320 -0.5590 -0.0420 -0.6411
  111HFI     F6 1819   2.384   1.203   1.445  0.0116 -0.3106  0.0564
  111HFI     H1 1820   2.168   1.392   1.499 -1.5120 -2.1438  0.8063
  111HFI     H2 1821   2.417   1.401   1.625 -0.0854  2.2002  0.8450
  112HFI     O1 1822   2.909   2.276   0.449 -0.7448  0.0607  0.6607
  112HFI     C1 1823   2.866   2.394   0.525 -0.3216 -0.3371  0.7287
  112HFI     C2 1824   2.779   2.345   0.640  0.5730 -0.0643  0.5067
  112HFI     F1 1825   2.744   2.446   0.727  0.0948  0.5972  0.0011
  112HFI     F2 1826   2.849   2.251   0.710 -0.0823 -0.4861 -0.1186
  112HFI     F3 1827   2.665   2.281   0.596 -0.4507 -0.6069 -0.1121
  112HFI     C3 1828   2.791   2.491   0.436 -0.0883 -0.6896  0.7179
  112HFI     F4 1829   2.784   2.610   0.497 -0.0512  0.3480 -0.4930
  112HFI     F5 1830   2.658   2.466   0.406  0.2027  0.3317  0.2192
  112HFI     F6 1831   2.851   2.520   0.313  0.2202 -0.0756  0.1165
  112HFI     H1 1832   2.896   2.287   0.353  2.6311  0.1524  0.1677
  112HFI     H2 1833   2.954   2.443   0.568  0.0204 -1.1036  0.9164
  113HFI     O1 1834   1.699   0.394   1.348  0.0592 -0.3612  0.3706
  113HFI     C1 1835   1.588   0.376   1.437  0.3185 -0.6550 -0.5081
  113HFI     C2 1836   1.604   0.236   1.503  0.1077 -0.3256  0.3759
  113HFI     F1 1837   1.505   0.229   1.599 -0.1566  0.2678  0.4282
  113HFI     F2 1838   1.733   0.220   1.558  0.2036 -0.0678  0.4479
  113HFI     F3 1839   1.587   0.142   1.410  0.5830  0.3794  0.2616
  113HFI     C3 1840   1.449   0.418   1.377 -0.5517  0.6324 -0.0811
  113HFI     F4 1841   1.453   0.527   1.308  0.0429  0.1616  0.1232
  113HFI     F5 1842   1.360   0.433   1.476  0.6547  0.3443  0.2872
  113HFI     F6 1843   1.401   0.321   1.297 -0.3369 -0.4900  0.3421
  113HFI     H1 1844   1.696   0.484   1.310  1.3658  0.3020  1.8338
  113HFI     H2 1845   1.601   0.442   1.524  1.2023 -1.1281 -0.2719
  114HFI     O1 1846   1.570   0.311   3.247  0.3094  0.7300  0.5489
  114HFI     C1 1847   1.681   0.382   3.309 -0.3746  0.5442 -0.3274
  114HFI     C2 1848   1.752   0.278   3.402 -0.3665 -0.4578  0.3171
  114HFI     F1 1849   1.660   0.221   3.483  0.0856  0.6478 -0.2167
  114HFI     F2 1850   1.842   0.332   3.487 -0.2028  0.3941 -0.3535
  114HFI     F3 1851   1.810   0.185   3.334  0.1388 -0.1129 -0.2280
  114HFI     C3 1852   1.640   0.511   3.373  0.1316 -0.1719 -0.5955
  114HFI     F4 1853   1.531   0.494   3.456  0.2156  0.0072 -0.1910
  114HFI     F5 1854   1.604   0.602   3.286  0.2793 -0.5735 -0.2287
  114HFI     F6 1855   1.742   0.563   3.451 -0.2962 -0.3261  0.1207
  114HFI     H1 1856   1.509   0.275   3.314  1.0820 -0.2196  0.7599
  114HFI     H2 1857   1.760   0.399   3.235 -0.7145 -2.1545 -1.3313
  115HFI     O1 1858   0.301   3.281   1.325 -0.2879  0.7117 -0.5181
  115HFI     C1 1859   0.427   3.244   1.395  0.7407 -0.2426  0.0086
  115HFI     C2 1860   0.395   3.123   1.493  0.4690  0.0778  0.0486
  115HFI     F1 1861   0.313   3.155   1.589  0.4884 -0.7001  0.3569
  115HFI     F2 1862   0.508   3.070   1.546 -0.4155 -0.4980 -0.1645
  115HFI     F3 1863   0.337   3.016   1.428  0.0293  0.1032  0.2689
  115HFI     C3 1864   0.503   3.363   1.468  0.7901 -0.2500 -0.5793
  115HFI     F4 1865   0.432   3.415   1.570 -0.2062 -0.3357  0.3396
  115HFI     F5 1866   0.529   3.464   1.377 -0.1527  0.7627 -0.1094
  115HFI     F6 1867   0.615   3.319   1.521  0.3432  0.4555  0.2771
  115HFI     H1 1868   0.306   3.374   1.297  0.7152  0.4314 -1.2874
  115HFI     H2 1869   0.502   3.213   1.322  2.5295  4.6085 -0.4168
  116HFI     O1 1870   0.938   1.171   3.621  0.6496  0.6685  0.5353
  116HFI     C1 1871   0.929   1.196   3.765  0.1611  0.7010  0.0877
  116HFI     C2 1872   0.855   1.075   3.837 -0.5907  0.0702 -0.1253
  116HFI     F1 1873   0.944   0.969   3.828 -0.1080 -0.4667 -0.5292
  116HFI     F2 1874   0.741   1.048   3.771  0.3404  0.5862  0.2741
  116HFI     F3 1875   0.822   1.096   3.967 -0.0449  0.0675  0.0590
  116HFI     C3 1876   0.870   1.335   3.794  0.0645  0.2338  0.6617
  116HFI     F4 1877   0.842   1.360   3.927  0.4166  0.1241  0.3937
  116HFI     F5 1878   0.753   1.340   3.739  0.1772  0.6865  0.5333
  116HFI     F6 1879   0.936   1.437   3.742  0.3742 -0.1458 -0.1095
  116HFI     H1 1880   0.970   1.252   3.577 -1.0214 -0.5761 -3.1347
  116HFI     H2 1881   1.029   1.182   3.806 -0.0549  0.8008  0.6489
  117HFI     O1 1882   2.209   1.033   1.301 -0.6222  0.2187  0.2047
  117HFI     C1 1883   2.169   0.929   1.393 -0.3264  0.1680 -0.1429
  117HFI     C2 1884   2.096   0.994   1.518 -0.3920 -0.0887 -0.9094
  117HFI     F1 1885   2.028   0.900   1.586 -0.4712 -0.3643 -0.0564
  117HFI     F2 1886   2.005   1.089   1.482  0.3028  0.2343 -0.0331
  117HFI     F3 1887   2.181   1.050   1.612  0.3017  0.2326 -0.0369
  117HFI     C3 1888   2.295   0.844   1.433  0.0734 -0.2092  0.1547
  117HFI     F4 1889   2.378   0.916   1.517 -0.2555 -0.2575 -0.1241
  117HFI     F5 1890   2.365   0.808   1.325  0.2505 -0.3067  0.0483
  117HFI     F6 1891   2.262   0.736   1.499 -0.1903 -0.0366 -0.0394
  117HFI     H1 1892   2.249   1.101   1.359 -3.7128  1.8945  0.5386
  117HFI     H2 1893   2.103   0.858   1.342  1.0036 -1.3732  0.2270
  118HFI     O1 1894   0.273   2.411   2.468 -0.3426  0.1576  0.1495
  118HFI     C1 1895   0.314   2.310   2.372  0.4518 -0.8842 -0.4370
  118HFI     C2 1896   0.418   2.370   2.274 -0.4659  0.4602 -0.0637
  118HFI     F1 1897   0.471   2.272   2.196  0.1909  0.2349 -0.0328
  118HFI     F2 1898   0.518   2.438   2.325 -0.3691 -0.3266  0.1423
  118HFI     F3 1899   0.358   2.441   2.183 -0.0024  0.2446 -0.1071
  118HFI     C3 1900   0.188   2.243   2.304  0.6434 -0.6482  0.0770
  118HFI     F4 1901   0.226   2.134   2.220  0.8489  0.0520 -0.3691
  118HFI     F5 1902   0.118   2.324   2.222  0.2375  0.6385 -0.3540
  118HFI     F6 1903   0.098   2.197   2.398  0.1247  0.1884 -0.5417
  118HFI     H1 1904   0.202   2.463   2.426 -1.2715 -0.7338  0.5833
  118HFI     H2 1905   0.364   2.232   2.430  1.0304 -0.3834 -0.2593
  119HFI     O1 1906   1.838   3.172   0.652  0.4920 -0.4856  0.2113
  119HFI     C1 1907   1.818   3.080   0.538  0.4108 -0.3489 -0.2263
  119HFI     C2 1908   1.755   3.152   0.421 -0.0848 -0.5875  0.0526
  119HFI     F1 1909   1.750   3.075   0.309  0.3812 -0.2436  0.2905
  119HFI     F2 1910   1.825   3.266   0.390  0.5509 -0.1152  0.2954
  119HFI     F3 1911   1.629   3.194   0.445  0.0194 -0.1026 -0.4453
  119HFI     C3 1912   1.733   2.953   0.578  0.0674  0.5772 -0.5281
  119HFI     F4 1913   1.611   2.985   0.637 -0.2654  0.0049  0.3631
  119HFI     F5 1914   1.801   2.874   0.673 -0.3592  0.1881 -0.4734
  119HFI     F6 1915   1.708   2.874   0.466  0.5450  0.2481  0.1879
  119HFI     H1 1916   1.881   3.121   0.723  1.5430 -1.3244 -0.9913
  119HFI     H2 1917   1.917   3.050   0.500 -0.3286 -1.7117 -1.0926
  120HFI     O1 1918   0.938   1.074   2.474 -0.3401 -0.4489  0.1551
  120HFI     C1 1919   0.871   0.977   2.381  0.3234 -0.1180  0.0161
  120HFI     C2 1920   0.963   0.886   2.304 -0.5153 -0.4418 -0.5891
  120HFI     F1 1921   1.033   0.831   2.394 -0.0746 -0.5006  0.1830
  120HFI     F2 1922   1.051   0.948   2.219 -0.2888  0.0537 -0.1160
  120HFI     F3 1923   0.897   0.790   2.239 -0.0560  0.3016  0.2429
  120HFI     C3 1924   0.768   1.045   2.288  0.2050  0.6358  0.4535
  120HFI     F4 1925   0.822   1.132   2.199 -0.2870 -0.4110 -0.2884
  120HFI     F5 1926   0.683   1.112   2.365  0.2358  0.0469  0.1173
  120HFI     F6 1927   0.693   0.956   2.215 -0.1986 -0.1903  0.3998
  120HFI     H1 1928   1.022   1.094   2.431  0.6793 -2.3107  1.2422
  120HFI     H2 1929   0.817   0.907   2.445  1.6368 -0.7995  0.4100
  121HFI     O1 1930   0.921   1.562   2.293  0.5178 -0.1429 -0.4064
  121HFI     C1 1931   1.060   1.552   2.276 -0.7044 -0.5841 -0.7566
  121HFI     C2 1932   1.117   1.428   2.350  0.3749  0.6552 -0.0022
  121HFI     F1 1933   1.244   1.424   2.327  0.2137 -0.1574 -0.0739
  121HFI     F2 1934   1.068   1.306   2.330 -0.3817 -0.1593 -0.3614
  121HFI     F3 1935   1.112   1.441   2.489 -0.1715  0.4590  0.4679
  121HFI     C3 1936   1.139   1.686   2.300  0.8212  0.0272  1.0332
  121HFI     F4 1937   1.263   1.682   2.248  0.2644 -0.2524  0.1180
  121HFI     F5 1938   1.149   1.708   2.428  0.2292 -0.4202 -0.9301
  121HFI     F6 1939   1.076   1.788   2.234  0.5737 -0.2013  0.3177
  121HFI     H1 1940   0.898   1.630   2.360 -0.2497  1.1173 -1.9053
  121HFI     H2 1941   1.079   1.535   2.169 -0.5862  1.3689 -1.0508
  122HFI     O1 1942   2.001   2.308   2.505  0.1895 -0.1644 -0.5246
  122HFI     C1 1943   1.974   2.227   2.385 -0.2172  0.5176  0.4130
  122HFI     C2 1944   2.102   2.220   2.286 -0.2667  0.0093 -0.0831
  122HFI     F1 1945   2.102   2.335   2.211  0.7186  0.1691  0.5179
  122HFI     F2 1946   2.089   2.125   2.194  0.3251 -0.4794 -0.0432
  122HFI     F3 1947   2.226   2.210   2.350 -0.2275 -0.4730 -0.3223
  122HFI     C3 1948   1.845   2.271   2.314 -0.0809  0.1849 -0.1110
  122HFI     F4 1949   1.811   2.197   2.206  1.0950  0.3998  0.4020
  122HFI     F5 1950   1.848   2.399   2.278  0.4341 -0.2214 -0.2086
  122HFI     F6 1951   1.742   2.263   2.401 -0.6193 -0.2426  0.0787
  122HFI     H1 1952   1.969   2.400   2.498  0.0758 -0.1073  0.7086
  122HFI     H2 1953   1.955   2.122   2.411 -1.9079 -0.0062 -2.6591
  123HFI     O1 1954   0.913   1.434   0.754  0.2286  0.6907 -0.6494
  123HFI     C1 1955   0.935   1.303   0.827 -0.5809  0.1195  0.0988
  123HFI     C2 1956   0.809   1.207   0.802 -1.1685 -0.2123  0.2582
  123HFI     F1 1957   0.835   1.080   0.843  0.3679  0.0781  0.0335
  123HFI     F2 1958   0.787   1.203   0.666  0.5787 -0.3336 -0.3534
  123HFI     F3 1959   0.694   1.243   0.864  0.3334 -0.0298  0.4035
  123HFI     C3 1960   0.971   1.320   0.982  0.0280  0.3550 -0.3306
  123HFI     F4 1961   1.020   1.205   1.029 -0.0045  0.3590 -0.1957
  123HFI     F5 1962   0.859   1.360   1.048  0.7683  0.5077 -0.5389
  123HFI     F6 1963   1.065   1.414   1.003 -0.3192  0.0370  0.5214
  123HFI     H1 1964   0.876   1.497   0.819 -3.2764 -0.8962 -0.9841
  123HFI     H2 1965   1.021   1.260   0.774 -0.7242  0.1745 -0.1793
  124HFI     O1 1966   2.346   1.944   3.535  1.2670  0.1096  0.0800
  124HFI     C1 1967   2.424   1.931   3.412  0.3236  0.0399  0.3932
  124HFI     C2 1968   2.550   2.022   3.405 -0.5281 -0.1135  0.1942
  124HFI     F1 1969   2.627   1.994   3.508  0.1413  0.2705  0.0614
  124HFI     F2 1970   2.508   2.149   3.409 -0.0933  0.4936  0.6401
  124HFI     F3 1971   2.618   2.004   3.295 -0.4781 -0.2960  0.1732
  124HFI     C3 1972   2.334   1.931   3.286 -0.8925 -0.0825  0.2178
  124HFI     F4 1973   2.394   1.872   3.179 -0.5714 -0.3576  0.0270
  124HFI     F5 1974   2.295   2.055   3.255  0.2396  0.5896 -0.0199
  124HFI     F6 1975   2.219   1.873   3.310  0.2655 -0.4755 -0.1815
  124HFI     H1 1976   2.313   2.036   3.539  1.9791  0.3777 -0.1140
  124HFI     H2 1977   2.473   1.834   3.431 -0.7225 -0.3681  1.0767
  125HFI     O1 1978   0.439   0.023   0.073  0.1050  0.1376  0.7894
  125HFI     C1 1979   0.362  -0.100   0.084 -0.2382  0.0403  0.3841
  125HFI     C2 1980   0.402  -0.178   0.220  0.3874  0.2500  0.2484
  125HFI     F1 1981   0.542  -0.168   0.233 -0.1088  0.2176 -0.4173
  125HFI     F2 1982   0.365  -0.311   0.223  0.3909 -0.2731 -0.2375
  125HFI     F3 1983   0.344  -0.114   0.323 -0.0265 -0.2668  0.2744
  125HFI     C3 1984   0.366  -0.200  -0.043  0.0482  0.4246 -0.3996
  125HFI     F4 1985   0.497  -0.237  -0.061  0.2975 -0.1193  0.1453
  125HFI     F5 1986   0.331  -0.138  -0.158 -0.1528 -0.1188 -0.9338
  125HFI     F6 1987   0.295  -0.316  -0.025  0.2133  0.4171  0.7617
  125HFI     H1 1988   0.532   0.007   0.096  0.2431 -2.2104 -1.1301
  125HFI     H2 1989   0.254  -0.082   0.075 -0.5023 -0.3231  2.4808
  126HFI     O1 1990   0.649   1.359   2.501  0.0581 -0.2484  0.5134
  126HFI     C1 1991   0.525   1.415   2.450 -0.3426 -0.1076 -0.2050
  126HFI     C2 1992   0.402   1.346   2.513 -0.3703  0.0712 -0.0270
  126HFI     F1 1993   0.290   1.391   2.464 -0.1799  0.0032 -0.1867
  126HFI     F2 1994   0.398   1.364   2.648 -0.0763 -0.2651 -0.3700
  126HFI     F3 1995   0.399   1.217   2.486  0.0600  0.0776  0.1063
  126HFI     C3 1996   0.516   1.407   2.294  0.0586  0.3949 -0.2875
  126HFI     F4 1997   0.634   1.449   2.246 -0.2755 -0.0107  0.2766
  126HFI     F5 1998   0.417   1.490   2.243  0.4779  0.5957  0.2091
  126HFI     F6 1999   0.495   1.280   2.250 -0.0541 -0.3054  0.0648
  126HFI     H1 2000   0.658   1.269   2.467  0.8576  0.0688 -0.1623
  126HFI     H2 2001   0.515   1.521   2.478 -1.0736 -0.0800 -0.5637
  127HFI     O1 2002   2.041   3.328   2.824 -0.4061 -0.0179  0.9283
  127HFI     C1 2003   2.126   3.211   2.849  0.0988  0.1052 -0.3423
  127HFI     C2 2004   2.260   3.210   2.769 -0.4202  0.5080  0.3299
  127HFI     F1 2005   2.342   3.102   2.792 -0.4417 -0.2781 -0.1470
  127HFI     F2 2006   2.325   3.324   2.801  0.0438 -0.3026 -0.6888
  127HFI     F3 2007   2.236   3.223   2.639 -0.0043  0.2560  0.1151
  127HFI     C3 2008   2.052   3.080   2.817  0.5604 -0.4043 -0.0330
  127HFI     F4 2009   1.979   3.089   2.701  0.0544  0.1929  0.3108
  127HFI     F5 2010   1.963   3.071   2.923  0.0257  0.1466 -0.1916
  127HFI     F6 2011   2.125   2.967   2.810  1.2826  0.0816 -0.1001
  127HFI     H1 2012   2.085   3.381   2.755  1.7051 -3.7283 -0.6931
  127HFI     H2 2013   2.152   3.216   2.955 -1.3936  0.2930  0.0264
  128HFI     O1 2014   0.790   2.569   2.423  0.4322 -0.2244 -0.3396
  128HFI     C1 2015   0.866   2.494   2.331 -0.2477  0.0509 -1.2789
  128HFI     C2 2016   0.871   2.341   2.374 -0.1142  0.5736 -0.0896
  128HFI     F1 2017   0.912   2.258   2.279 -0.0184  0.2598  0.1903
  128HFI     F2 2018   0.750   2.292   2.410  0.8042 -0.5675 -0.0538
  128HFI     F3 2019   0.962   2.323   2.479  0.0777  0.0592 -0.1317
  128HFI     C3 2020   1.006   2.563   2.309 -0.5109 -0.1026  0.3090
  128HFI     F4 2021   0.997   2.700   2.299  0.2009  0.3449  0.4669
  128HFI     F5 2022   1.070   2.513   2.199 -0.1793 -0.0555 -1.2968
  128HFI     F6 2023   1.082   2.546   2.419 -0.5556 -0.3180  0.4332
  128HFI     H1 2024   0.837   2.642   2.466  0.5936  1.1563 -2.8072
  128HFI     H2 2025   0.818   2.494   2.233  0.2345  1.1795 -1.5269
  129HFI     O1 2026   2.898   2.612   3.168  0.1399  0.0556 -0.1596
  129HFI     C1 2027   2.869   2.483   3.228 -0.0843  0.7144 -0.0993
  129HFI     C2 2028   2.764   2.395   3.148  0.1088 -0.8515  0.0720
  129HFI     F1 2029   2.803   2.355   3.031 -0.0866  0.0087  0.3767
  129HFI     F2 2030   2.651   2.467   3.126 -0.4346 -0.0912  0.6158
  129HFI     F3 2031   2.730   2.287   3.208 -0.2325  0.1300  0.2394
  129HFI     C3 2032   2.826   2.504   3.376 -0.6214 -1.1679  0.0925
  129HFI     F4 2033   2.918   2.582   3.431 -0.9889 -0.4788 -0.0151
  129HFI     F5 2034   2.821   2.394   3.452 -0.0677 -0.0610  0.4196
  129HFI     F6 2035   2.703   2.558   3.391 -0.6169 -0.4809 -0.3157
  129HFI     H1 2036   2.817   2.658   3.141  0.9510  0.7639 -1.4585
  129HFI     H2 2037   2.965   2.429   3.231 -1.2305 -1.3383  0.7402
  130HFI     O1 2038   1.348   0.192   3.486  0.1113  0.3315  0.0692
  130HFI     C1 2039   1.208   0.182   3.444  0.1931 -0.1956 -0.8524
  130HFI     C2 2040   1.190   0.269   3.315  0.0712 -0.0973 -0.3829
  130HFI     F1 2041   1.065   0.241   3.263 -0.4169 -0.7003  0.2369
  130HFI     F2 2042   1.287   0.242   3.222 -0.0925  0.2103 -0.0939
  130HFI     F3 2043   1.200   0.400   3.345  0.6883  0.1518  0.2430
  130HFI     C3 2044   1.111   0.216   3.566  0.2775  0.2001 -0.1929
  130HFI     F4 2045   0.990   0.249   3.527  0.3265  0.1581 -0.2738
  130HFI     F5 2046   1.169   0.302   3.653  0.1491 -0.2301 -0.0582
  130HFI     F6 2047   1.101   0.099   3.634  0.4113  0.0312  0.2258
  130HFI     H1 2048   1.347   0.202   3.583 -0.7691 -0.8476  0.1883
  130HFI     H2 2049   1.179   0.082   3.409  0.1181 -0.4501 -0.0580
  131HFI     O1 2050   1.165   3.334   0.923  0.2022 -0.5917  0.1150
  131HFI     C1 2051   1.107   3.274   1.043 -0.0239  0.0426 -0.0206
  131HFI     C2 2052   1.197   3.161   1.107  0.5399 -0.3092 -0.2829
  131HFI     F1 2053   1.151   3.129   1.230 -0.2684 -0.2408  0.2683
  131HFI     F2 2054   1.329   3.192   1.114  0.3430 -0.6598  0.0140
  131HFI     F3 2055   1.188   3.045   1.032  0.2693  0.2390  0.1320
  131HFI     C3 2056   0.955   3.230   1.015 -0.2585  0.1122 -0.4188
  131HFI     F4 2057   0.873   3.341   0.998  0.3179 -0.6870  0.5753
  131HFI     F5 2058   0.906   3.161   1.123 -0.4459  0.0172  0.0493
  131HFI     F6 2059   0.937   3.159   0.903 -0.2640 -0.0419 -0.0833
  131HFI     H1 2060   1.142   3.428   0.922 -0.4805 -0.7696 -1.6259
  131HFI     H2 2061   1.094   3.343   1.127  0.5099 -0.1100  0.1947
  132HFI     O1 2062   2.360   1.674   3.621  0.4532 -0.2730  0.6380
  132HFI     C1 2063   2.260   1.596   3.688 -0.2233  0.2887 -0.4665
  132HFI     C2 2064   2.124   1.599   3.606 -1.0799 -0.4528  0.6246
  132HFI     F1 2065   2.084   1.728   3.590  0.2489 -0.2595 -0.7226
  132HFI     F2 2066   2.027   1.532   3.670  0.1451  0.2702  0.1717
  132HFI     F3 2067   2.138   1.549   3.480  0.0332  0.1397  0.6212
  132HFI     C3 2068   2.238   1.630   3.837 -0.4538 -0.0021  0.7007
  132HFI     F4 2069   2.350   1.636   3.908  0.0950  0.2011 -0.1741
  132HFI     F5 2070   2.159   1.538   3.898  0.1972  0.0648 -0.2083
  132HFI     F6 2071   2.187   1.750   3.850 -0.3565 -0.2106 -0.0360
  132HFI     H1 2072   2.316   1.759   3.603 -0.3047 -0.6067  0.8981
  132HFI     H2 2073   2.288   1.490   3.687 -2.1364 -0.2262 -1.4560
  133HFI     O1 2074   2.811   3.398   2.398  0.1153  0.0560 -0.0713
  133HFI     C1 2075   2.756   3.488   2.295  0.4305 -0.1414 -0.0720
  133HFI     C2 2076   2.819   3.623   2.321 -0.3624  0.9485 -0.0538
  133HFI     F1 2077   2.777   3.689   2.438  0.2463 -0.5978 -0.2872
  133HFI     F2 2078   2.798   3.701   2.217  0.0138 -0.3440  0.3407
  133HFI     F3 2079   2.954   3.607   2.332 -0.0429  0.1775  0.6771
  133HFI     C3 2080   2.596   3.488   2.293 -0.0043 -0.5063  0.4610
  133HFI     F4 2081   2.547   3.554   2.187  0.2150 -0.3922 -0.2020
  133HFI     F5 2082   2.537   3.539   2.408  0.0765  0.5350 -0.1053
  133HFI     F6 2083   2.544   3.361   2.280  0.2362  0.1726 -0.1249
  133HFI     H1 2084   2.740   3.341   2.433 -0.5629 -0.4792 -2.1955
  133HFI     H2 2085   2.781   3.460   2.192  0.0913 -2.7432  0.5195
  134HFI     O1 2086   0.954   0.424   2.621  0.6610 -0.4579  0.3989
  134HFI     C1 2087   0.893   0.528   2.713  0.5593  0.3929  0.5740
  134HFI     C2 2088   0.749   0.494   2.761 -0.5743  0.0114  0.4782
  134HFI     F1 2089   0.667   0.430   2.670  0.1623 -0.4846 -0.1817
  134HFI     F2 2090   0.691   0.603   2.804 -0.0439 -0.0246  0.0948
  134HFI     F3 2091   0.757   0.412   2.863 -0.1861  0.0372  0.1184
  134HFI     C3 2092   0.913   0.665   2.648 -1.1252  0.2971 -0.5444
  134HFI     F4 2093   1.043   0.684   2.616  0.7331 -0.0967 -0.4645
  134HFI     F5 2094   0.879   0.767   2.727  0.2286  0.2053 -0.2244
  134HFI     F6 2095   0.846   0.671   2.534 -0.0096 -0.2246 -0.5716
  134HFI     H1 2096   0.962   0.341   2.672 -1.4764 -0.5020  0.6980
  134HFI     H2 2097   0.945   0.528   2.809 -2.4164  3.2296  2.2766
  135HFI     O1 2098   2.261   2.530   2.779 -0.2671 -0.2244 -0.0984
  135HFI     C1 2099   2.308   2.655   2.833  0.5020  0.0969  0.9915
  135HFI     C2 2100   2.445   2.700   2.785  0.4080  0.4373 -0.1495
  135HFI     F1 2101   2.475   2.826   2.823  0.0809 -0.1537 -0.0447
  135HFI     F2 2102   2.465   2.693   2.652  0.7526  0.0061 -0.0219
  135HFI     F3 2103   2.529   2.614   2.840 -0.0027 -0.2817 -0.0099
  135HFI     C3 2104   2.300   2.657   2.986 -0.3448  0.1335 -0.6480
  135HFI     F4 2105   2.184   2.607   3.034 -0.4032  0.4293 -0.4226
  135HFI     F5 2106   2.293   2.781   3.030  0.0931  0.1085  0.1362
  135HFI     F6 2107   2.396   2.576   3.051  0.4326 -0.4831  0.2973
  135HFI     H1 2108   2.327   2.490   2.720 -0.3576 -0.7972  0.1818
  135HFI     H2 2109   2.237   2.730   2.795 -0.0460 -1.4705 -1.1257
  136HFI     O1 2110   1.589   1.754   2.507  0.1987 -0.3511  0.2628
  136HFI     C1 2111   1.681   1.681   2.422 -0.9141  0.4889  0.1715
  136HFI     C2 2112   1.748   1.778   2.311  0.2244  0.3550  0.4852
  136HFI     F1 2113   1.823   1.703   2.222 -0.3622  0.3184 -0.1766
  136HFI     F2 2114   1.817   1.879   2.372  0.1559 -0.3040 -0.3126
  136HFI     F3 2115   1.650   1.843   2.241 -0.0884 -0.1095  0.2422
  136HFI     C3 2116   1.610   1.555   2.348  0.4135 -0.6856 -0.5016
  136HFI     F4 2117   1.529   1.589   2.248  0.5016  0.2597  0.0469
  136HFI     F5 2118   1.538   1.496   2.444  0.4243  0.4140  0.2277
  136HFI     F6 2119   1.698   1.456   2.304  0.2745 -0.1794  0.0533
  136HFI     H1 2120   1.510   1.777   2.456  0.1118 -1.4746 -0.1274
  136HFI     H2 2121   1.757   1.640   2.489 -2.6902  0.3758  2.1474
  137HFI     O1 2122   0.132   2.886   2.414 -0.1167  0.3664 -0.3048
  137HFI     C1 2123   0.241   2.906   2.314  0.7216 -0.0923  0.3643
  137HFI     C2 2124   0.346   2.793   2.331 -0.2224  0.3465  0.6007
  137HFI     F1 2125   0.425   2.796   2.220  0.1419 -0.0734  0.3274
  137HFI     F2 2126   0.280   2.676   2.336 -0.4519 -0.1838  0.5719
  137HFI     F3 2127   0.420   2.810   2.442  0.1049 -0.1839  0.3010
  137HFI     C3 2128   0.300   3.055   2.322  0.9940 -0.0133  0.3837
  137HFI     F4 2129   0.195   3.146   2.335 -0.1779  0.4131 -0.0881
  137HFI     F5 2130   0.369   3.091   2.214 -0.8355  0.0368  0.3733
  137HFI     F6 2131   0.376   3.068   2.431  0.8822 -0.3693 -0.5258
  137HFI     H1 2132   0.156   2.935   2.494 -2.1051 -0.5866  0.9205
  137HFI     H2 2133   0.196   2.889   2.215  0.7025  1.0737  0.1619
  138HFI     O1 2134   1.463   3.128   2.219  0.5603  0.2927 -0.4554
  138HFI     C1 2135   1.465   3.223   2.325 -0.6013 -0.6385  0.5564
  138HFI     C2 2136   1.324   3.288   2.351 -0.6313 -0.0045 -0.1756
  138HFI     F1 2137   1.269   3.343   2.244 -0.1066 -0.2275  0.5895
  138HFI     F2 2138   1.323   3.374   2.453 -1.0145  0.2419 -0.0203
  138HFI     F3 2139   1.250   3.188   2.393 -0.4427 -0.1347  0.5030
  138HFI     C3 2140   1.565   3.335   2.288 -0.8118  0.2166  0.1307
  138HFI     F4 2141   1.530   3.414   2.191 -0.4266 -0.1473 -0.1659
  138HFI     F5 2142   1.683   3.281   2.246 -0.0671  0.2951 -0.5476
  138HFI     F6 2143   1.591   3.412   2.391 -0.2644  0.1173  0.0551
  138HFI     H1 2144   1.388   3.144   2.160 -0.7571  0.1728  1.1570
  138HFI     H2 2145   1.509   3.184   2.418  0.2746 -1.5386 -0.2225
  139HFI     O1 2146   0.938   0.469   2.342  0.1218  0.0761 -0.1199
  139HFI     C1 2147   0.891   0.369   2.260 -0.6016 -0.0250  0.9066
  139HFI     C2 2148   0.743   0.352   2.271 -0.0962 -0.5005 -0.7567
  139HFI     F1 2149   0.676   0.466   2.236 -0.6411  0.1918  0.6022
  139HFI     F2 2150   0.704   0.328   2.401  0.4015  0.1460 -0.4549
  139HFI     F3 2151   0.693   0.244   2.198 -0.5962 -0.0227 -0.1313
  139HFI     C3 2152   0.963   0.230   2.285  0.3511  0.1128  0.1222
  139HFI     F4 2153   0.936   0.140   2.183 -0.3038 -0.7288 -0.5078
  139HFI     F5 2154   0.923   0.181   2.399 -0.7359 -0.1466 -0.2006
  139HFI     F6 2155   1.100   0.232   2.288  0.0188  0.3480 -0.0430
  139HFI     H1 2156   0.934   0.438   2.434 -0.3054 -2.4251 -0.9459
  139HFI     H2 2157   0.916   0.389   2.155 -1.1419 -1.6191  0.4554
  140HFI     O1 2158   3.099   0.753   0.387  0.3537  0.6771 -0.5074
  140HFI     C1 2159   3.243   0.764   0.372 -0.0891  0.4232  0.0166
  140HFI     C2 2160   3.303   0.624   0.377  1.0262 -0.1062  0.6460
  140HFI     F1 2161   3.276   0.557   0.256  0.1736 -0.2870 -0.5038
  140HFI     F2 2162   3.249   0.550   0.482 -0.2404  0.3106 -0.0472
  140HFI     F3 2163   3.439   0.617   0.390  0.1742 -0.4249  0.1232
  140HFI     C3 2164   3.302   0.868   0.481  0.7220 -0.1501 -1.0153
  140HFI     F4 2165   3.232   0.978   0.477  0.0059 -0.5900  0.0435
  140HFI     F5 2166   3.427   0.896   0.454 -0.0073  0.1295 -0.0414
  140HFI     F6 2167   3.297   0.808   0.595  0.2301 -0.1897 -0.2755
  140HFI     H1 2168   3.089   0.698   0.466 -1.8680 -1.8518 -2.4752
  140HFI     H2 2169   3.280   0.802   0.276  0.8756  1.0745  0.6318
  141HFI     O1 2170   3.260   3.295   3.291 -0.1841  0.1547  0.6491
  141HFI     C1 2171   3.147   3.388   3.265 -0.0569  0.0230 -0.1806
  141HFI     C2 2172   3.113   3.469   3.391 -0.0629  0.3056 -0.1453
  141HFI     F1 2173   3.218   3.524   3.443  0.0533 -0.1150  0.2640
  141HFI     F2 2174   3.049   3.396   3.482 -0.1098  0.0363  0.0059
  141HFI     F3 2175   3.019   3.560   3.364  0.2576  0.2886  0.2501
  141HFI     C3 2176   3.033   3.301   3.201  0.1215  0.1652  0.1229
  141HFI     F4 2177   2.962   3.217   3.283 -0.5092 -0.0890 -0.0959
  141HFI     F5 2178   3.081   3.234   3.092  0.6018  0.1355 -0.7495
  141HFI     F6 2179   2.943   3.386   3.156  0.0507 -0.4141  0.5797
  141HFI     H1 2180   3.298   3.297   3.381  1.7037 -1.2138 -0.0987
  141HFI     H2 2181   3.180   3.461   3.191  0.5692 -2.2320 -2.2089
  142HFI     O1 2182   1.697   1.366   2.626 -0.0138  0.3246  0.1334
  142HFI     C1 2183   1.791   1.344   2.731 -0.0188  0.6747 -0.3271
  142HFI     C2 2184   1.721   1.268   2.852 -0.4645 -0.4765 -0.0185
  142HFI     F1 2185   1.657   1.162   2.795  0.0055  0.3391  0.5457
  142HFI     F2 2186   1.636   1.349   2.923  0.4825  0.3487  0.2914
  142HFI     F3 2187   1.817   1.229   2.944  0.3089 -0.0895  0.5051
  142HFI     C3 2188   1.874   1.468   2.763  0.7522  0.0307 -0.3481
  142HFI     F4 2189   1.958   1.496   2.660 -0.0023  0.3481  0.7997
  142HFI     F5 2190   1.949   1.455   2.871 -0.7205  0.2163  0.0585
  142HFI     F6 2191   1.797   1.576   2.786  0.2203 -0.1830  0.0854
  142HFI     H1 2192   1.632   1.294   2.633 -0.8067  0.8623 -1.4593
  142HFI     H2 2193   1.868   1.270   2.705  0.9588  1.6033 -0.0933
  143HFI     O1 2194   0.232   0.002   2.487  0.3969  0.0490 -1.2172
  143HFI     C1 2195   0.232   0.113   2.396  0.2892  0.1485 -0.0330
  143HFI     C2 2196   0.125   0.089   2.293  0.4658  0.6052  0.3060
  143HFI     F1 2197   0.152  -0.022   2.213 -0.3128  0.3574  0.1388
  143HFI     F2 2198   0.109   0.196   2.213  0.0268  0.1462  0.0790
  143HFI     F3 2199   0.006   0.066   2.355 -0.0400 -0.3363  0.2247
  143HFI     C3 2200   0.369   0.145   2.330 -0.5283 -0.4395 -0.1935
  143HFI     F4 2201   0.462   0.159   2.430 -0.3706 -0.2060  0.2004
  143HFI     F5 2202   0.370   0.259   2.264  0.3255 -0.3525  0.2588
  143HFI     F6 2203   0.417   0.045   2.242  0.1686  0.5769  0.4849
  143HFI     H1 2204   0.318  -0.043   2.482 -0.2628 -1.3142 -0.8050
  143HFI     H2 2205   0.198   0.202   2.451  0.3799 -0.7883  1.5593
  144HFI     O1 2206   1.222   1.727   3.364  0.0208  0.0031  0.0632
  144HFI     C1 2207   1.132   1.637   3.432  0.5192 -0.1344 -0.7184
  144HFI     C2 2208   1.198   1.510   3.490  0.3334 -0.6614 -0.2545
  144HFI     F1 2209   1.110   1.417   3.528 -0.2743 -0.4214 -0.2229
  144HFI     F2 2210   1.276   1.549   3.600  0.8876 -0.0386  0.0083
  144HFI     F3 2211   1.277   1.447   3.400 -0.3909 -0.2044 -0.1787
  144HFI     C3 2212   1.011   1.610   3.336 -0.2234 -0.6480 -0.4398
  144HFI     F4 2213   0.903   1.584   3.414  0.4584  0.2540  0.5970
  144HFI     F5 2214   1.027   1.517   3.243 -0.0110  0.4627 -0.0695
  144HFI     F6 2215   0.981   1.723   3.264  0.0178 -0.1728  0.1380
  144HFI     H1 2216   1.237   1.692   3.274 -0.3669 -1.5802  0.5936
  144HFI     H2 2217   1.095   1.676   3.528 -3.3821  0.5275 -2.3841
  145HFI     O1 2218   1.460   1.781   0.377  0.0235  0.3429  0.5348
  145HFI     C1 2219   1.499   1.832   0.518  0.4047 -0.0886 -0.1941
  145HFI     C2 2220   1.629   1.911   0.502 -0.0258  0.0130 -0.9784
  145HFI     F1 2221   1.659   1.992   0.603 -0.3564  0.1504 -0.5271
  145HFI     F2 2222   1.634   1.987   0.392 -0.0182  0.4727  0.4040
  145HFI     F3 2223   1.734   1.825   0.479 -0.2927 -0.1289 -0.2674
  145HFI     C3 2224   1.514   1.715   0.618  0.4114 -0.4430 -0.0927
  145HFI     F4 2225   1.390   1.658   0.619  0.3352 -0.3220 -0.6395
  145HFI     F5 2226   1.540   1.774   0.740 -0.0553 -0.0478 -0.4790
  145HFI     F6 2227   1.603   1.624   0.581  0.0268  0.2121  0.0087
  145HFI     H1 2228   1.524   1.809   0.309 -1.7630  3.6931  0.1192
  145HFI     H2 2229   1.424   1.902   0.556  0.5983 -0.5209  1.0067
  146HFI     O1 2230   0.397   0.154   3.182 -0.3041 -0.1396 -0.2197
  146HFI     C1 2231   0.299   0.052   3.226 -0.8914 -0.2355 -0.1106
  146HFI     C2 2232   0.200   0.002   3.116 -0.7047 -0.0486  0.3760
  146HFI     F1 2233   0.136  -0.107   3.163 -0.2948  0.2754 -0.2077
  146HFI     F2 2234   0.269  -0.042   3.004 -0.0806  0.5717  0.2214
  146HFI     F3 2235   0.109   0.090   3.078  0.1802  0.0028 -0.2570
  146HFI     C3 2236   0.216   0.104   3.346 -0.5849 -0.3308 -0.4784
  146HFI     F4 2237   0.127   0.010   3.392 -0.2750  0.5429 -0.1030
  146HFI     F5 2238   0.154   0.219   3.308 -0.3888 -0.4717  0.3252
  146HFI     F6 2239   0.296   0.135   3.447 -0.7762  0.0520 -0.3773
  146HFI     H1 2240   0.434   0.134   3.094  0.2304 -1.4309  0.3016
  146HFI     H2 2241   0.356  -0.034   3.264  0.1630  0.1627 -0.7799
  147HFI     O1 2242   1.625   2.381   3.685 -0.0315  0.4016 -0.0821
  147HFI     C1 2243   1.653   2.289   3.796  0.2294 -0.0921  0.0150
  147HFI     C2 2244   1.750   2.338   3.904 -0.3213 -0.5535 -0.0622
  147HFI     F1 2245   1.885   2.325   3.879 -0.6250  0.3247  0.1032
  147HFI     F2 2246   1.724   2.277   4.016 -0.3555 -0.2360 -0.8687
  147HFI     F3 2247   1.717   2.463   3.933 -0.1092 -0.1497 -0.0481
  147HFI     C3 2248   1.668   2.142   3.743 -0.1162 -0.2633 -0.2364
  147HFI     F4 2249   1.784   2.131   3.672  0.3859 -0.6254  0.2057
  147HFI     F5 2250   1.564   2.099   3.678 -0.4254 -0.0160  0.3954
  147HFI     F6 2251   1.678   2.052   3.844  0.1716  0.2939  0.0722
  147HFI     H1 2252   1.600   2.467   3.721 -2.3575 -1.1375  2.1593
  147HFI     H2 2253   1.561   2.272   3.853  0.6545  1.2029  1.1171
  148HFI     O1 2254   0.646   1.987   2.300 -0.2432 -0.6164  0.9059
  148HFI     C1 2255   0.659   1.957   2.442 -0.3055  0.2949  0.1122
  148HFI     C2 2256   0.803   1.900   2.474 -0.0482 -0.2413 -0.8678
  148HFI     F1 2257   0.816   1.855   2.600 -0.1454  0.5176 -0.3612
  148HFI     F2 2258   0.904   1.983   2.455 -0.3040 -0.1151 -0.4956
  148HFI     F3 2259   0.823   1.794   2.388  0.4733  0.1244 -0.4678
  148HFI     C3 2260   0.545   1.868   2.492  0.7343  0.7967 -0.3339
  148HFI     F4 2261   0.562   1.748   2.443  0.0936  0.4000 -0.2542
  148HFI     F5 2262   0.426   1.908   2.445  0.1101  0.1618 -0.1184
  148HFI     F6 2263   0.545   1.871   2.624  0.4695 -0.6223 -0.1485
  148HFI     H1 2264   0.732   1.996   2.257  0.3512  1.9273  2.5441
  148HFI     H2 2265   0.658   2.045   2.507 -0.2864 -0.0731  0.6249
  149HFI     O1 2266   0.328   0.930   3.762  0.0536 -0.1436 -0.3262
  149HFI     C1 2267   0.259   0.801   3.762  0.4791 -0.0204  0.3051
  149HFI     C2 2268   0.176   0.778   3.635 -0.2899  0.4130 -0.4607
  149HFI     F1 2269   0.248   0.801   3.531 -0.5815 -0.0680  0.2250
  149HFI     F2 2270   0.070   0.863   3.614 -0.5870 -0.4295  0.3376
  149HFI     F3 2271   0.132   0.656   3.626  0.1358 -0.3117 -0.0104
  149HFI     C3 2272   0.176   0.784   3.892  0.3426  0.1083 -0.2646
  149HFI     F4 2273   0.130   0.653   3.912  0.3066 -0.6723  0.2247
  149HFI     F5 2274   0.062   0.864   3.895  0.5213  0.0727  0.2780
  149HFI     F6 2275   0.249   0.822   3.997 -0.0945 -0.0606 -0.0488
  149HFI     H1 2276   0.392   0.936   3.689 -0.3823  0.4486 -0.6650
  149HFI     H2 2277   0.331   0.719   3.764  0.3870 -0.0745  2.6208
  150HFI     O1 2278   0.551   2.878   3.613 -0.0204 -0.7503  0.1540
  150HFI     C1 2279   0.654   2.780   3.600 -0.4509  0.0313 -0.0925
  150HFI     C2 2280   0.601   2.648   3.654  0.0435  0.1527  0.0484
  150HFI     F1 2281   0.672   2.552   3.611  0.6383  0.1254  0.2231
  150HFI     F2 2282   0.481   2.638   3.606 -0.4415 -0.6538  0.0506
  150HFI     F3 2283   0.589   2.647   3.792  0.4043 -0.4645 -0.2377
  150HFI     C3 2284   0.782   2.819   3.678  0.1269  0.0487  0.2702
  150HFI     F4 2285   0.760   2.877   3.797  0.2768 -0.2424  0.0147
  150HFI     F5 2286   0.851   2.913   3.607 -0.0728 -0.4039 -0.6044
  150HFI     F6 2287   0.869   2.716   3.705  0.1647  0.5051  0.4411
  150HFI     H1 2288   0.568   2.935   3.690 -1.4809  0.9004 -0.7163
  150HFI     H2 2289   0.693   2.764   3.499  0.7124  0.7088  0.2353
  151HFI     O1 2290   0.645   1.067   3.481  0.1497  0.0379  0.7200
  151HFI     C1 2291   0.590   1.132   3.364  0.1675  0.0683 -0.1513
  151HFI     C2 2292   0.641   1.284   3.352 -0.0662 -0.1714 -0.0834
  151HFI     F1 2293   0.769   1.286   3.359  0.4431  0.2143  0.4913
  151HFI     F2 2294   0.593   1.360   3.451  0.0538 -0.0563 -0.9985
  151HFI     F3 2295   0.603   1.341   3.228  0.0994 -0.3196 -0.2328
  151HFI     C3 2296   0.437   1.119   3.362  0.1549  0.2256 -0.7258
  151HFI     F4 2297   0.389   0.993   3.392 -0.4059  0.4200 -0.0254
  151HFI     F5 2298   0.385   1.156   3.236  0.3310  0.4360 -0.1792
  151HFI     F6 2299   0.374   1.203   3.460  0.2417  0.5233 -0.2785
  151HFI     H1 2300   0.739   1.090   3.488  0.5337 -0.9348 -0.8317
  151HFI     H2 2301   0.624   1.081   3.274  1.3946 -1.4454  1.1408
  152HFI     O1 2302   0.747   2.688   0.732 -0.2939 -0.4434 -0.1024
  152HFI     C1 2303   0.887   2.666   0.737 -0.2392 -0.3133  0.0479
  152HFI     C2 2304   0.957   2.740   0.856  0.4698  0.6361 -0.3460
  152HFI     F1 2305   0.927   2.687   0.974  0.5852 -0.3178 -0.2814
  152HFI     F2 2306   0.925   2.870   0.864  0.1482 -0.6134  0.5410
  152HFI     F3 2307   1.090   2.730   0.839  0.1047 -0.5266  0.7763
  152HFI     C3 2308   0.947   2.708   0.598 -0.9469 -0.2411 -0.1861
  152HFI     F4 2309   0.937   2.844   0.583  0.1354 -0.0283 -0.1527
  152HFI     F5 2310   0.885   2.640   0.494  0.3245 -0.0090 -0.0351
  152HFI     F6 2311   1.081   2.683   0.587  0.2736 -0.2695 -0.3758
  152HFI     H1 2312   0.715   2.667   0.643  0.7314 -2.5864  0.0240
  152HFI     H2 2313   0.907   2.559   0.739 -0.4690 -0.3660 -0.5409
  153HFI     O1 2314   2.780   1.114   2.386  0.1008 -0.4642  0.6062
  153HFI     C1 2315   2.730   0.988   2.331  0.0872 -0.2752 -0.0187
  153HFI     C2 2316   2.605   0.925   2.400 -0.7016  0.0014  1.1768
  153HFI     F1 2317   2.639   0.844   2.503 -0.4061 -0.0244 -0.3789
  153HFI     F2 2318   2.526   0.851   2.322  0.0630 -0.0503 -0.1657
  153HFI     F3 2319   2.535   1.018   2.459  0.1528  0.3426 -0.6010
  153HFI     C3 2320   2.854   0.891   2.320 -0.9094 -0.0531  0.5249
  153HFI     F4 2321   2.947   0.944   2.244 -0.2914  0.3199 -0.2412
  153HFI     F5 2322   2.830   0.763   2.272  0.1642  0.1567  0.9099
  153HFI     F6 2323   2.912   0.871   2.440  0.2334 -1.3622 -0.0985
  153HFI     H1 2324   2.786   1.117   2.483 -2.8056  0.2192  0.8157
  153HFI     H2 2325   2.709   1.009   2.225  2.6801  0.9091 -0.3343
  154HFI     O1 2326   2.580   2.636   0.172  0.0834 -0.0717 -0.3239
  154HFI     C1 2327   2.560   2.777   0.139  0.4863 -0.1293 -0.0910
  154HFI     C2 2328   2.568   2.794  -0.015  0.1330 -0.3028  0.3489
  154HFI     F1 2329   2.606   2.686  -0.087 -0.1687  0.3228 -0.0753
  154HFI     F2 2330   2.649   2.896  -0.058  0.5289 -0.1865  0.4734
  154HFI     F3 2331   2.445   2.819  -0.062  0.1483  0.6503  0.0625
  154HFI     C3 2332   2.660   2.871   0.220  0.5379  0.3192 -0.3843
  154HFI     F4 2333   2.792   2.857   0.184  0.1601  0.0349  0.2199
  154HFI     F5 2334   2.650   2.839   0.346 -0.5825 -0.6075  0.0467
  154HFI     F6 2335   2.611   2.996   0.212 -0.0938  0.1086 -0.3367
  154HFI     H1 2336   2.628   2.594   0.099 -0.6561  2.5068 -2.3564
  154HFI     H2 2337   2.461   2.811   0.173  1.4944  2.3225  0.5266
  155HFI     O1 2338   3.378   0.910   2.234 -0.4572 -0.4052 -0.5036
  155HFI     C1 2339   3.410   1.048   2.276  0.1206 -0.2587  0.6917
  155HFI     C2 2340   3.561   1.062   2.296 -0.6615  0.0202 -0.6314
  155HFI     F1 2341   3.638   1.000   2.200  0.1740  0.0351 -0.6456
  155HFI     F2 2342   3.606   1.023   2.415 -0.0664 -0.7739  0.0008
  155HFI     F3 2343   3.589   1.195   2.296  0.1866  0.0476  0.6441
  155HFI     C3 2344   3.332   1.094   2.404 -0.5199 -0.3536 -0.1967
  155HFI     F4 2345   3.342   1.016   2.511  0.0375  0.2085 -0.2032
  155HFI     F5 2346   3.196   1.090   2.367  0.3215  0.5608 -0.3550
  155HFI     F6 2347   3.353   1.224   2.441 -0.6002 -0.2438  0.1414
  155HFI     H1 2348   3.392   0.854   2.312 -1.3273  0.5212  0.3242
  155HFI     H2 2349   3.377   1.115   2.196  0.2413 -0.4918  0.4461
  156HFI     O1 2350   3.006   2.973   3.469  0.3457 -0.2652  0.0642
  156HFI     C1 2351   3.143   2.990   3.448 -0.0514  1.1588  0.5863
  156HFI     C2 2352   3.200   2.910   3.330 -0.1254 -0.3485  1.1907
  156HFI     F1 2353   3.136   2.947   3.216  0.6741 -0.2631  0.2803
  156HFI     F2 2354   3.175   2.778   3.346  0.1538 -0.5458 -0.3700
  156HFI     F3 2355   3.328   2.930   3.314 -0.0799 -0.0620  0.4136
  156HFI     C3 2356   3.212   2.973   3.590 -0.0276 -0.5393 -0.3377
  156HFI     F4 2357   3.166   3.067   3.670  0.0842  0.1827 -0.0253
  156HFI     F5 2358   3.349   2.984   3.583  0.0027 -0.2601  0.4870
  156HFI     F6 2359   3.185   2.852   3.643 -0.0867  0.3298  0.0104
  156HFI     H1 2360   2.979   3.017   3.552  0.4414 -1.1411  0.5690
  156HFI     H2 2361   3.162   3.094   3.419  1.1928  2.0356  4.2513
  157HFI     O1 2362   2.541   1.776   0.954 -0.2184  0.3764 -0.1798
  157HFI     C1 2363   2.606   1.887   1.030  0.9370 -0.2667  0.7474
  157HFI     C2 2364   2.617   1.852   1.181  0.0329 -0.0988 -0.4453
  157HFI     F1 2365   2.669   1.946   1.259 -0.2841  0.4233 -0.6420
  157HFI     F2 2366   2.688   1.734   1.196  0.4789 -0.2386  0.1312
  157HFI     F3 2367   2.498   1.826   1.237 -0.2518  0.2178 -0.4529
  157HFI     C3 2368   2.542   2.029   0.997 -0.1141 -0.3715 -0.1729
  157HFI     F4 2369   2.621   2.124   1.050 -0.2786  0.3995 -0.4979
  157HFI     F5 2370   2.415   2.034   1.047 -0.6906 -0.0235 -0.3741
  157HFI     F6 2371   2.532   2.045   0.861 -0.0451  0.1319 -0.2022
  157HFI     H1 2372   2.451   1.769   0.991  0.4060  2.5022  1.8509
  157HFI     H2 2373   2.712   1.892   0.999  0.4362  0.7831 -0.8920
  158HFI     O1 2374   3.398   2.442   0.907 -0.1106 -0.3025 -0.0942
  158HFI     C1 2375   3.493   2.410   1.020  0.2856  0.3040  0.7230
  158HFI     C2 2376   3.491   2.533   1.123 -0.9046 -0.5830  0.5136
  158HFI     F1 2377   3.495   2.648   1.059  0.0286 -0.3472  0.3508
  158HFI     F2 2378   3.599   2.533   1.203 -0.4439 -0.3047 -0.0685
  158HFI     F3 2379   3.379   2.536   1.201 -0.0066  0.1154 -0.0339
  158HFI     C3 2380   3.639   2.386   0.959  0.0894 -0.4211  0.0575
  158HFI     F4 2381   3.693   2.495   0.889  0.1025  0.0033  0.1042
  158HFI     F5 2382   3.617   2.285   0.870  0.3001 -0.3940 -0.0466
  158HFI     F6 2383   3.730   2.353   1.048 -0.6068 -0.0397 -0.1053
  158HFI     H1 2384   3.425   2.532   0.883 -0.5960 -0.3215 -0.7170
  158HFI     H2 2385   3.461   2.318   1.071  0.4203  0.0767  0.4042
  159HFI     O1 2386   0.897   0.941   3.278 -0.9891  0.1634 -0.4012
  159HFI     C1 2387   0.956   0.802   3.298 -0.5807 -0.2487  1.0508
  159HFI     C2 2388   1.060   0.801   3.416  0.5416 -0.7076  0.2141
  159HFI     F1 2389   1.140   0.909   3.401 -0.1734 -0.0560  0.1879
  159HFI     F2 2390   1.140   0.695   3.425 -0.0699  0.2475 -0.1142
  159HFI     F3 2391   0.996   0.819   3.537 -0.3822 -0.2134 -0.2028
  159HFI     C3 2392   1.009   0.754   3.162  0.2250 -0.1587  0.3154
  159HFI     F4 2393   0.905   0.779   3.077 -0.5879  0.4119  0.2739
  159HFI     F5 2394   1.030   0.621   3.167  0.3071 -0.0147 -0.1189
  159HFI     F6 2395   1.118   0.819   3.120  0.2131  0.0071  0.0430
  159HFI     H1 2396   0.969   1.005   3.293 -1.0685  0.2120 -0.2272
  159HFI     H2 2397   0.880   0.735   3.337  1.3779 -3.0955  0.1419
  160HFI     O1 2398   2.027   2.172   3.442 -0.5186  0.1216 -0.3822
  160HFI     C1 2399   1.967   2.186   3.305 -0.3935  0.1644  0.7833
  160HFI     C2 2400   2.011   2.321   3.249 -0.5814 -1.1989 -0.2370
  160HFI     F1 2401   2.150   2.317   3.224 -0.0108 -0.0788  0.5434
  160HFI     F2 2402   1.981   2.427   3.332 -0.0176  0.5338 -0.2184
  160HFI     F3 2403   1.944   2.349   3.139 -0.0537 -0.2177  0.2634
  160HFI     C3 2404   1.813   2.159   3.306  0.1320 -1.2459  0.2339
  160HFI     F4 2405   1.766   2.151   3.185 -0.3847 -0.1894 -0.3687
  160HFI     F5 2406   1.738   2.259   3.374  0.1329  0.0314  0.0576
  160HFI     F6 2407   1.786   2.039   3.367 -0.1292 -0.0481 -0.1542
  160HFI     H1 2408   1.969   2.110   3.490  2.5407 -0.4446  2.8307
  160HFI     H2 2409   2.011   2.112   3.237  1.3458  2.4727 -0.6626
  161HFI     O1 2410   2.215   2.548   0.486  0.1207  0.0212  0.6154
  161HFI     C1 2411   2.248   2.671   0.564 -0.6074 -0.4579  0.2578
  161HFI     C2 2412   2.236   2.806   0.479  0.0546 -0.1395  0.5305
  161HFI     F1 2413   2.113   2.825   0.431  0.2038 -0.2148  0.2053
  161HFI     F2 2414   2.321   2.819   0.372  0.1686 -0.4234  0.5696
  161HFI     F3 2415   2.255   2.914   0.555 -0.4264  0.3212 -0.1310
  161HFI     C3 2416   2.387   2.663   0.640  0.5605 -0.1605  0.3734
  161HFI     F4 2417   2.493   2.655   0.554 -0.0688 -0.3242  0.2320
  161HFI     F5 2418   2.394   2.545   0.714  0.5263 -0.2187  0.6205
  161HFI     F6 2419   2.405   2.769   0.723 -0.4214 -0.3759  0.1321
  161HFI     H1 2420   2.286   2.485   0.506  0.4436  0.2229  0.1275
  161HFI     H2 2421   2.175   2.680   0.644 -0.1832 -0.0480  0.6030
  162HFI     O1 2422   2.637   1.826   2.394  0.1381  0.4400 -0.7076
  162HFI     C1 2423   2.549   1.907   2.314 -0.3991  0.2866  0.3497
  162HFI     C2 2424   2.589   2.059   2.287  0.3795 -0.0475 -0.3112
  162HFI     F1 2425   2.501   2.134   2.217  0.2183 -0.0051  0.0478
  162HFI     F2 2426   2.698   2.055   2.214  0.2046  0.0031 -0.0957
  162HFI     F3 2427   2.607   2.116   2.409  0.2449  0.3089  0.2756
  162HFI     C3 2428   2.404   1.900   2.355  0.3709  0.4832  0.3464
  162HFI     F4 2429   2.384   1.767   2.361 -0.2994  0.2429 -0.7380
  162HFI     F5 2430   2.319   1.947   2.258  0.0110 -0.8792 -0.4151
  162HFI     F6 2431   2.374   1.962   2.470  0.3199 -0.1983  0.4345
  162HFI     H1 2432   2.712   1.882   2.421  0.1446  1.0429 -1.9275
  162HFI     H2 2433   2.535   1.864   2.214 -0.6333 -0.9356  0.8997
  163HFI     O1 2434   0.425   0.496   2.451 -0.2151  0.0872 -0.0808
  163HFI     C1 2435   0.388   0.584   2.339  0.8213 -0.8118  0.3852
  163HFI     C2 2436   0.460   0.719   2.355  0.8131 -0.2315 -0.0413
  163HFI     F1 2437   0.461   0.791   2.243 -0.1158 -0.2122 -0.1223
  163HFI     F2 2438   0.590   0.694   2.388 -0.3586  0.3948  0.2858
  163HFI     F3 2439   0.404   0.789   2.458 -0.1670 -0.0430  0.0929
  163HFI     C3 2440   0.241   0.600   2.323 -0.0732 -0.2691 -0.4112
  163HFI     F4 2441   0.214   0.689   2.235  0.1825  0.1119  0.1513
  163HFI     F5 2442   0.179   0.635   2.438 -0.6188  0.0322  0.1416
  163HFI     F6 2443   0.185   0.480   2.284  0.3202  0.2123 -0.0087
  163HFI     H1 2444   0.488   0.547   2.505 -1.9650  0.7019  1.4498
  163HFI     H2 2445   0.436   0.550   2.247  0.1252 -1.8906  0.4132
  164HFI     O1 2446   0.008   1.475   2.314 -0.5812 -0.0648  0.3618
  164HFI     C1 2447  -0.007   1.616   2.268  0.2790 -0.1159 -0.5122
  164HFI     C2 2448   0.085   1.699   2.360 -0.4181 -0.1785 -0.3982
  164HFI     F1 2449   0.068   1.837   2.342  0.3318 -0.1372  0.0929
  164HFI     F2 2450   0.215   1.664   2.343 -0.1892 -0.0565 -0.2548
  164HFI     F3 2451   0.058   1.671   2.490  0.0830  0.3549 -0.2018
  164HFI     C3 2452  -0.149   1.666   2.266  0.0501  1.0726 -0.0579
  164HFI     F4 2453  -0.205   1.687   2.389  0.4660 -0.1181  0.1709
  164HFI     F5 2454  -0.231   1.581   2.211  0.3449  0.1040 -0.7519
  164HFI     F6 2455  -0.160   1.785   2.206  0.5208 -0.2109 -0.2106
  164HFI     H1 2456   0.020   1.475   2.410  2.0455  1.1880  0.0828
  164HFI     H2 2457   0.030   1.628   2.165 -1.7442  0.8371 -1.1472
  165HFI     O1 2458   2.603   1.482   2.767  0.7348  0.3825  0.4944
  165HFI     C1 2459   2.483   1.546   2.816  0.5322  0.3403 -0.5207
  165HFI     C2 2460   2.361   1.495   2.734 -0.6424  0.5885 -0.6478
  165HFI     F1 2461   2.245   1.519   2.801 -0.5668 -0.0956  0.1095
  165HFI     F2 2462   2.362   1.360   2.713  0.8279  0.6667 -0.2215
  165HFI     F3 2463   2.359   1.560   2.614  0.2364  0.1526 -0.2532
  165HFI     C3 2464   2.494   1.698   2.815 -0.3489  0.0188  0.2570
  165HFI     F4 2465   2.575   1.742   2.916 -0.4297 -0.2449 -0.4984
  165HFI     F5 2466   2.379   1.756   2.827  0.3451 -0.1625 -0.1164
  165HFI     F6 2467   2.550   1.746   2.701 -0.3276  0.0857 -0.4598
  165HFI     H1 2468   2.611   1.493   2.670  1.3544 -0.5873  0.4246
  165HFI     H2 2469   2.461   1.521   2.921  0.9772 -0.4431 -0.6123
  166HFI     O1 2470   0.578   1.729   0.411 -0.1608 -0.0778 -0.6355
  166HFI     C1 2471   0.529   1.654   0.522 -0.6085  0.0914 -1.0106
  166HFI     C2 2472   0.425   1.710   0.608 -1.3345  0.1356 -0.2075
  166HFI     F1 2473   0.339   1.780   0.536  0.2074  0.7712  0.3053
  166HFI     F2 2474   0.466   1.791   0.713  0.1240  0.0786 -0.1775
  166HFI     F3 2475   0.360   1.612   0.662 -0.4275 -0.4888  0.2397
  166HFI     C3 2476   0.646   1.572   0.592  0.1375  0.3941  0.6490
  166HFI     F4 2477   0.601   1.480   0.676  0.0220 -0.5673  0.0860
  166HFI     F5 2478   0.719   1.658   0.667  0.2488  0.3306  0.1558
  166HFI     F6 2479   0.731   1.518   0.500  0.3334  0.1361 -0.3967
  166HFI     H1 2480   0.611   1.819   0.430 -0.3625  0.0741 -1.0081
  166HFI     H2 2481   0.479   1.571   0.470 -0.5197 -1.0635  0.7149
  167HFI     O1 2482   2.091   0.782   2.468 -0.1016  0.4364 -0.1180
  167HFI     C1 2483   1.974   0.711   2.430 -0.2450 -0.6127  0.1890
  167HFI     C2 2484   1.964   0.711   2.279  0.1019 -0.8620 -0.5470
  167HFI     F1 2485   1.850   0.666   2.236  0.3957  0.7286 -0.3959
  167HFI     F2 2486   2.063   0.637   2.233 -0.4521  0.1980  0.0039
  167HFI     F3 2487   1.984   0.834   2.229 -0.0196 -0.0399 -0.0834
  167HFI     C3 2488   1.843   0.760   2.495  0.0492  0.0121  0.3754
  167HFI     F4 2489   1.810   0.884   2.451  0.3888  0.8405  0.0717
  167HFI     F5 2490   1.854   0.760   2.628 -0.5437  0.5785  0.3296
  167HFI     F6 2491   1.735   0.679   2.473 -0.1551  0.4226 -0.0198
  167HFI     H1 2492   2.080   0.874   2.439  1.6527  1.1315  1.3374
  167HFI     H2 2493   1.977   0.608   2.468  1.2672  0.2013  2.3954
  168HFI     O1 2494   1.962   1.278   2.460  0.8445  0.3638  0.1277
  168HFI     C1 2495   2.079   1.283   2.376 -0.1128  0.2678  0.1950
  168HFI     C2 2496   2.084   1.406   2.280 -0.9107 -0.6047 -0.0812
  168HFI     F1 2497   2.192   1.408   2.194 -0.2704  0.2036 -0.0508
  168HFI     F2 2498   2.084   1.522   2.353  0.4455  0.0267  0.2264
  168HFI     F3 2499   1.970   1.405   2.206  0.2918 -0.1439 -0.1572
  168HFI     C3 2500   2.085   1.152   2.288 -0.0716  0.0944  0.0697
  168HFI     F4 2501   2.202   1.141   2.215  0.0044  0.2212 -0.2485
  168HFI     F5 2502   1.986   1.146   2.198  0.0920  0.7712 -0.6935
  168HFI     F6 2503   2.074   1.042   2.362  0.1804  0.3292 -0.0362
  168HFI     H1 2504   1.877   1.292   2.414  1.0417  1.1388 -0.0113
  168HFI     H2 2505   2.172   1.287   2.434  0.8199  2.8669 -1.4003
  169HFI     O1 2506   1.473   3.263   2.733 -0.4399 -0.1525 -1.1686
  169HFI     C1 2507   1.506   3.138   2.795 -0.1845 -0.5683 -0.2058
  169HFI     C2 2508   1.658   3.112   2.793  0.2684  0.2877 -0.4096
  169HFI     F1 2509   1.710   3.092   2.668  0.3721  0.7183  0.0727
  169HFI     F2 2510   1.700   3.011   2.877  0.6525 -0.1243  0.4146
  169HFI     F3 2511   1.714   3.223   2.842 -0.1457 -0.0707  0.4929
  169HFI     C3 2512   1.424   3.022   2.733 -0.1475  0.1858  0.5442
  169HFI     F4 2513   1.453   2.898   2.788  0.3507 -0.2469  0.0849
  169HFI     F5 2514   1.431   3.006   2.595 -0.2425 -0.0371  0.1205
  169HFI     F6 2515   1.295   3.041   2.764  0.0015  0.0481  0.1277
  169HFI     H1 2516   1.378   3.284   2.745  0.0040 -0.2546  2.8597
  169HFI     H2 2517   1.481   3.132   2.902 -0.4437  1.0189 -0.1764
  170HFI     O1 2518   2.756   1.614   3.141 -0.2645 -0.1055 -0.1388
  170HFI     C1 2519   2.708   1.501   3.226  0.7637  0.9952 -0.3308
  170HFI     C2 2520   2.565   1.526   3.279 -0.8674  0.2521  0.1439
  170HFI     F1 2521   2.553   1.633   3.352  0.4275  0.3582  0.0149
  170HFI     F2 2522   2.520   1.419   3.348  0.3048  0.5486 -0.3451
  170HFI     F3 2523   2.479   1.545   3.170 -0.1747  0.1594  0.1429
  170HFI     C3 2524   2.806   1.460   3.337 -0.3941 -0.4001 -0.5849
  170HFI     F4 2525   2.836   1.567   3.417 -0.0141  0.4858 -0.0002
  170HFI     F5 2526   2.920   1.415   3.279 -0.1315 -0.5975  0.5414
  170HFI     F6 2527   2.770   1.359   3.416  0.0109 -0.3607  0.1641
  170HFI     H1 2528   2.834   1.592   3.088  0.3120 -0.1014  0.7003
  170HFI     H2 2529   2.701   1.414   3.161 -0.4980  1.8989 -1.4314
  171HFI     O1 2530   1.936   0.180   2.680 -0.5371  0.4387 -0.0311
  171HFI     C1 2531   1.829   0.185   2.778 -0.1570 -0.7260 -0.4447
  171HFI     C2 2532   1.693   0.123   2.732  0.4143  0.4516  0.1233
  171HFI     F1 2533   1.719  -0.000   2.676  0.2266  0.2999  0.3491
  171HFI     F2 2534   1.629   0.203   2.639  0.0211  0.6093 -0.3017
  171HFI     F3 2535   1.607   0.099   2.835 -0.3672 -0.2261 -0.4642
  171HFI     C3 2536   1.813   0.328   2.836  0.2526 -0.1709 -0.3739
  171HFI     F4 2537   1.928   0.375   2.889  0.1913 -0.3363 -0.2230
  171HFI     F5 2538   1.720   0.337   2.932 -0.2011  0.4853  0.4672
  171HFI     F6 2539   1.774   0.416   2.741 -0.1688 -0.4549  0.6540
  171HFI     H1 2540   1.900   0.209   2.595 -0.5265 -1.4530 -0.7159
  171HFI     H2 2541   1.858   0.130   2.868 -0.8479  1.6123  1.2535
  172HFI     O1 2542   2.739   0.126   3.681  0.1364 -0.1834  0.5986
  172HFI     C1 2543   2.744  -0.003   3.756 -0.3801  0.3159  0.0987
  172HFI     C2 2544   2.728  -0.118   3.661  0.6382  0.1331  0.1726
  172HFI     F1 2545   2.799  -0.099   3.546  0.3370 -0.0813 -0.1806
  172HFI     F2 2546   2.598  -0.149   3.624 -0.0423 -0.0951 -0.1094
  172HFI     F3 2547   2.784  -0.231   3.707 -0.1008 -0.1816 -0.0409
  172HFI     C3 2548   2.649   0.003   3.880 -0.2998 -0.0550  0.0167
  172HFI     F4 2549   2.679   0.105   3.957 -0.1509  0.0991  0.8876
  172HFI     F5 2550   2.672  -0.113   3.942 -0.5002  0.0412  0.0713
  172HFI     F6 2551   2.515   0.016   3.845  0.3021  0.2551 -0.3075
  172HFI     H1 2552   2.692   0.115   3.596  0.8124  3.6022 -0.3908
  172HFI     H2 2553   2.843  -0.018   3.799 -1.2523 -0.1160  2.0001
  173HFI     O1 2554   2.856   0.380   2.799 -0.4339  0.2731  0.5934
  173HFI     C1 2555   2.727   0.338   2.863  0.3524  0.3154  0.3066
  173HFI     C2 2556   2.667   0.201   2.798 -0.8664 -0.5542  0.3384
  173HFI     F1 2557   2.558   0.166   2.868  0.2973  0.3420 -0.3180
  173HFI     F2 2558   2.754   0.100   2.800  0.0103 -0.2572 -0.1029
  173HFI     F3 2559   2.636   0.220   2.668 -0.0709 -0.0784 -0.1454
  173HFI     C3 2560   2.637   0.457   2.875 -0.2434 -0.3233 -1.2254
  173HFI     F4 2561   2.641   0.529   2.761 -0.0023  0.3495 -0.9437
  173HFI     F5 2562   2.680   0.534   2.977  0.1094  0.1789 -0.3370
  173HFI     F6 2563   2.505   0.428   2.913 -0.3234  0.4662 -0.1108
  173HFI     H1 2564   2.829   0.396   2.707 -3.0216  0.5993  1.3745
  173HFI     H2 2565   2.740   0.315   2.969  0.9118 -1.7136 -0.1916
  174HFI     O1 2566   2.414   2.312   2.713 -0.4555 -0.9599 -0.0547
  174HFI     C1 2567   2.487   2.263   2.833 -0.1958  0.0691 -0.1095
  174HFI     C2 2568   2.587   2.151   2.790  0.2441 -0.2625 -0.3568
  174HFI     F1 2569   2.666   2.122   2.895  0.6674 -0.1488 -0.1202
  174HFI     F2 2570   2.666   2.197   2.687  0.9710 -0.3376  0.2242
  174HFI     F3 2571   2.524   2.044   2.747  0.1817 -0.2453 -0.3392
  174HFI     C3 2572   2.395   2.227   2.956  0.4241  0.2123  0.5695
  174HFI     F4 2573   2.342   2.109   2.947  0.2592  0.0313 -0.0773
  174HFI     F5 2574   2.293   2.318   2.973  0.4041 -0.1119  0.6833
  174HFI     F6 2575   2.461   2.225   3.072  0.1356  0.0522 -0.5242
  174HFI     H1 2576   2.389   2.241   2.651  0.4618  0.0640 -1.6076
  174HFI     H2 2577   2.553   2.340   2.875 -0.4011  0.1619  0.0447
  175HFI     O1 2578   3.363   2.840   2.911 -0.2280 -0.4459 -0.0209
  175HFI     C1 2579   3.423   2.947   2.842  0.6574 -0.1161 -0.2965
  175HFI     C2 2580   3.540   2.899   2.752  0.3506 -0.2458  0.4121
  175HFI     F1 2581   3.512   2.777   2.700 -0.8722  0.0547  0.1068
  175HFI     F2 2582   3.654   2.898   2.819  0.3658  0.2058  0.3308
  175HFI     F3 2583   3.571   2.984   2.653  0.0223  0.5370 -0.0761
  175HFI     C3 2584   3.451   3.070   2.933  0.2195  0.3706 -0.1124
  175HFI     F4 2585   3.341   3.121   2.989  0.3198 -0.1544 -0.0882
  175HFI     F5 2586   3.503   3.179   2.868 -0.1420 -0.2956 -0.5796
  175HFI     F6 2587   3.537   3.043   3.033  0.0578  0.0912  0.1558
  175HFI     H1 2588   3.431   2.788   2.957 -2.2494 -3.2955 -0.1468
  175HFI     H2 2589   3.353   2.987   2.767 -0.2665 -0.3998  0.3964
  176HFI     O1 2590   1.847   0.081   2.386 -0.2793 -0.1617 -0.2973
  176HFI     C1 2591   1.933   0.142   2.291  0.0173 -0.7203 -0.1376
  176HFI     C2 2592   2.065   0.064   2.283  0.3944  0.3099  0.7939
  176HFI     F1 2593   2.159   0.131   2.202 -0.1689 -0.1388  0.3025
  176HFI     F2 2594   2.038  -0.054   2.234 -0.5748  0.6771 -0.2862
  176HFI     F3 2595   2.118   0.057   2.401 -0.0829  0.6691  0.0688
  176HFI     C3 2596   1.951   0.294   2.323 -0.3717 -0.4904  0.2857
  176HFI     F4 2597   2.038   0.354   2.236  0.3292  0.1346 -0.2628
  176HFI     F5 2598   1.999   0.324   2.449  0.2397  0.1114 -0.1366
  176HFI     F6 2599   1.837   0.364   2.304 -0.0188  0.1661 -0.3026
  176HFI     H1 2600   1.865  -0.015   2.387  0.2966 -0.0512  0.6244
  176HFI     H2 2601   1.886   0.141   2.192 -1.4933  1.5894  0.5117
  177HFI     O1 2602   2.838   1.521   1.600  0.9446 -0.1423  0.0529
  177HFI     C1 2603   2.838   1.607   1.485  0.5081 -0.0557  0.0951
  177HFI     C2 2604   2.926   1.546   1.374 -0.0713 -0.2483  0.0780
  177HFI     F1 2605   2.875   1.430   1.333  0.2296 -0.5985  0.0129
  177HFI     F2 2606   3.050   1.513   1.425 -0.6284 -0.0518  0.4376
  177HFI     F3 2607   2.942   1.623   1.261  0.0906 -0.2289 -0.0182
  177HFI     C3 2608   2.877   1.745   1.523  0.4657 -0.6079 -0.2644
  177HFI     F4 2609   2.795   1.787   1.615  0.1966  0.1571 -0.3955
  177HFI     F5 2610   2.881   1.837   1.424  0.1319 -0.1248 -0.4727
  177HFI     F6 2611   3.002   1.751   1.576 -0.4581  0.4919  0.6402
  177HFI     H1 2612   2.925   1.485   1.625  1.5247  1.1099 -0.0861
  177HFI     H2 2613   2.743   1.615   1.432  2.1554  0.7331 -2.8832
  178HFI     O1 2614   2.364   1.078   3.428 -0.0749  0.4097 -0.1432
  178HFI     C1 2615   2.285   1.164   3.344 -0.1658 -0.3309 -0.1475
  178HFI     C2 2616   2.129   1.157   3.378 -0.1593  0.8406 -0.0153
  178HFI     F1 2617   2.101   1.177   3.508 -0.0414 -0.0723  0.5061
  178HFI     F2 2618   2.074   1.038   3.339 -0.1906  0.1080 -0.2515
  178HFI     F3 2619   2.063   1.249   3.318  0.0536  0.2844  0.2723
  178HFI     C3 2620   2.325   1.142   3.197 -0.5154  0.5994 -0.5047
  178HFI     F4 2621   2.242   1.196   3.112  0.0314 -0.3632  0.1951
  178HFI     F5 2622   2.323   1.010   3.181  0.0847  0.7255  0.1694
  178HFI     F6 2623   2.453   1.189   3.169  0.1794  0.4545  0.2121
  178HFI     H1 2624   2.321   0.992   3.442  1.9644  0.0243  4.6499
  178HFI     H2 2625   2.305   1.269   3.372 -1.4917 -0.4435  1.2988
  179HFI     O1 2626   2.605   0.511   2.489  0.1526 -0.2341  0.4259
  179HFI     C1 2627   2.466   0.468   2.453 -1.0778 -0.1317  0.3649
  179HFI     C2 2628   2.452   0.448   2.299  0.5030  0.1048 -0.1710
  179HFI     F1 2629   2.566   0.405   2.248 -0.0903  0.2968  0.0375
  179HFI     F2 2630   2.433   0.571   2.243 -0.2335  0.3134  0.0280
  179HFI     F3 2631   2.353   0.370   2.265  0.3633 -0.7264 -0.4486
  179HFI     C3 2632   2.363   0.565   2.534 -0.0629 -0.1917  0.4866
  179HFI     F4 2633   2.375   0.696   2.494  0.1145 -0.5226 -0.2950
  179HFI     F5 2634   2.381   0.550   2.671  0.2580 -0.1727  0.1567
  179HFI     F6 2635   2.234   0.523   2.512 -0.1851  0.0783  0.2238
  179HFI     H1 2636   2.670   0.464   2.434  2.1702  2.1587  0.6416
  179HFI     H2 2637   2.450   0.366   2.489  1.5474 -0.2989  1.1875
  180HFI     O1 2638   2.716   2.977   2.697  0.2885  0.0284  0.4217
  180HFI     C1 2639   2.850   2.950   2.736 -0.0422 -0.1253 -0.0192
  180HFI     C2 2640   2.869   2.806   2.795 -0.3807  0.2716 -0.3369
  180HFI     F1 2641   2.822   2.779   2.920  0.4205  0.0832  0.4069
  180HFI     F2 2642   3.000   2.763   2.794 -0.8618 -0.6320  0.0821
  180HFI     F3 2643   2.800   2.721   2.720  0.0595  0.1952  0.0574
  180HFI     C3 2644   2.921   3.072   2.813 -0.2685 -0.3467  0.0638
  180HFI     F4 2645   2.843   3.108   2.927 -0.0708 -0.4961  0.4364
  180HFI     F5 2646   2.938   3.181   2.736  0.1211 -0.3151  0.0087
  180HFI     F6 2647   3.044   3.047   2.863  0.0275  0.0803  0.1563
  180HFI     H1 2648   2.678   3.047   2.753 -1.9620  0.5934 -1.6939
  180HFI     H2 2649   2.912   2.937   2.647  0.0771 -0.5849  0.1322
  181HFI     O1 2650   1.524   0.010   3.677  0.4061 -0.1047  0.5185
  181HFI     C1 2651   1.488  -0.108   3.756 -0.3529  0.3858 -0.0397
  181HFI     C2 2652   1.502  -0.082   3.908  0.3814  0.2630 -0.4481
  181HFI     F1 2653   1.430   0.019   3.953  0.0714  0.2262  0.1082
  181HFI     F2 2654   1.631  -0.053   3.948  0.6958 -0.4450 -0.0176
  181HFI     F3 2655   1.460  -0.183   3.985 -0.4083 -0.1087 -0.0512
  181HFI     C3 2656   1.553  -0.241   3.709 -0.1291 -0.0954  0.8308
  181HFI     F4 2657   1.684  -0.248   3.737  0.5643  0.2124 -0.3207
  181HFI     F5 2658   1.539  -0.237   3.571 -0.0535  0.1644 -0.9012
  181HFI     F6 2659   1.497  -0.354   3.753 -0.2606 -0.3269 -0.0708
  181HFI     H1 2660   1.619   0.033   3.680  0.3533  0.6304 -2.1206
  181HFI     H2 2661   1.383  -0.133   3.736 -0.1294  0.5081 -1.3857
  182HFI     O1 2662   0.864   1.976   3.434  0.8089 -0.7485  0.0019
  182HFI     C1 2663   0.736   1.981   3.509 -0.4350 -0.0698  0.3603
  182HFI     C2 2664   0.745   2.052   3.649 -0.8901  0.0887  0.0706
  182HFI     F1 2665   0.840   2.001   3.725  0.1668  0.3489 -0.2718
  182HFI     F2 2666   0.633   2.046   3.717  0.5953  0.0577 -0.2904
  182HFI     F3 2667   0.781   2.181   3.637  0.3909  0.4562 -0.2078
  182HFI     C3 2668   0.694   1.832   3.518 -0.2905  0.1654 -0.0063
  182HFI     F4 2669   0.564   1.815   3.565  0.2067  0.0788  0.3246
  182HFI     F5 2670   0.772   1.772   3.606 -0.2860  0.4189  0.0971
  182HFI     F6 2671   0.707   1.768   3.400 -0.2424 -0.1687  0.0595
  182HFI     H1 2672   0.866   2.053   3.375 -0.4118 -0.9180 -0.2786
  182HFI     H2 2673   0.654   2.022   3.449  0.2001 -0.5652 -0.8724
  183HFI     O1 2674   2.831   2.817   1.097  0.4683 -0.0694 -0.1842
  183HFI     C1 2675   2.857   2.712   0.999  0.4244  0.9407 -0.0842
  183HFI     C2 2676   2.979   2.626   1.043 -0.4142  0.4728  0.4373
  183HFI     F1 2677   2.981   2.603   1.177  0.2226  0.2547 -0.0287
  183HFI     F2 2678   3.097   2.681   1.003  0.2061  0.2767 -0.4553
  183HFI     F3 2679   2.968   2.505   0.990  0.4820 -0.1414 -0.2135
  183HFI     C3 2680   2.873   2.779   0.855  0.4730  0.1133  0.3463
  183HFI     F4 2681   2.752   2.808   0.811 -0.0831  0.1872 -0.5282
  183HFI     F5 2682   2.921   2.694   0.767  0.0487  0.1212 -0.0459
  183HFI     F6 2683   2.950   2.894   0.852 -0.0032 -0.7085  0.0844
  183HFI     H1 2684   2.754   2.869   1.068  1.2017  1.0065 -0.2511
  183HFI     H2 2685   2.777   2.639   0.985 -0.0544  0.8387  2.7548
  184HFI     O1 2686   3.225   3.360   2.474  0.0568 -0.1044 -0.2082
  184HFI     C1 2687   3.154   3.244   2.430  0.1285 -0.6902  0.5334
  184HFI     C2 2688   3.200   3.121   2.506 -0.0408 -0.3851  0.2796
  184HFI     F1 2689   3.114   3.016   2.502  0.2460  0.1295 -0.0103
  184HFI     F2 2690   3.212   3.156   2.634  0.2837  0.3193 -0.1833
  184HFI     F3 2691   3.319   3.075   2.458 -0.0499 -0.1292 -0.5773
  184HFI     C3 2692   3.145   3.234   2.276 -0.1286  0.2373  0.3739
  184HFI     F4 2693   3.113   3.351   2.225 -0.2511 -0.0162  0.0122
  184HFI     F5 2694   3.056   3.146   2.233 -0.0658 -0.0889 -0.3943
  184HFI     F6 2695   3.272   3.196   2.235  0.0538  0.7039  0.0158
  184HFI     H1 2696   3.305   3.374   2.422 -0.2851 -1.2155 -1.0591
  184HFI     H2 2697   3.050   3.264   2.461  0.7263  0.7139  1.7143
  185HFI     O1 2698   2.127   2.903   2.505  0.1391 -0.3688  0.5715
  185HFI     C1 2699   2.013   2.907   2.404 -0.1552  0.0174  0.4492
  185HFI     C2 2700   2.030   2.785   2.306 -0.0642 -0.0345  0.7582
  185HFI     F1 2701   2.054   2.670   2.376  0.5907 -0.1055  0.2372
  185HFI     F2 2702   2.134   2.812   2.217 -0.3475  0.4047  0.9050
  185HFI     F3 2703   1.913   2.767   2.241 -0.0103  0.0913  0.2751
  185HFI     C3 2704   1.999   3.049   2.342  0.9060  0.4981 -0.1121
  185HFI     F4 2705   1.946   3.134   2.437  0.6876  0.6434 -0.4010
  185HFI     F5 2706   1.915   3.049   2.238  0.0031 -0.1552  0.7121
  185HFI     F6 2707   2.122   3.097   2.306  0.3813 -0.1705 -0.2470
  185HFI     H1 2708   2.206   2.885   2.451 -1.5333  0.5197 -2.2642
  185HFI     H2 2709   1.918   2.891   2.457  0.6944  1.8391  2.6022
  186HFI     O1 2710   1.459   1.228   2.443 -0.2428  0.0556 -0.1599
  186HFI     C1 2711   1.476   1.102   2.371 -0.5671 -0.4220  0.3865
  186HFI     C2 2712   1.600   1.113   2.275  0.2853  0.7673 -0.1219
  186HFI     F1 2713   1.580   1.209   2.180  0.3400  0.2855 -0.0708
  186HFI     F2 2714   1.620   1.001   2.205  0.1048  0.2042 -0.2397
  186HFI     F3 2715   1.716   1.143   2.332 -0.0706 -0.3042 -0.3671
  186HFI     C3 2716   1.349   1.066   2.296 -0.0211  0.0791 -0.0822
  186HFI     F4 2717   1.305   1.157   2.220 -0.0010  0.4213 -0.0942
  186HFI     F5 2718   1.247   1.050   2.383 -0.3213 -0.3692 -0.4793
  186HFI     F6 2719   1.362   0.955   2.219  0.0175  0.5028  0.1697
  186HFI     H1 2720   1.417   1.292   2.382 -1.5456 -0.6357 -0.0084
  186HFI     H2 2721   1.486   1.019   2.441  1.3462  0.4450  1.1713
  187HFI     O1 2722   0.281   1.233   2.961 -0.0644  0.5660  0.0448
  187HFI     C1 2723   0.238   1.373   2.953  0.0451  0.3687  0.4511
  187HFI     C2 2724   0.274   1.473   3.065  0.3770 -0.1949  0.9043
  187HFI     F1 2725   0.387   1.442   3.123  0.2940 -0.3638 -0.1810
  187HFI     F2 2726   0.172   1.468   3.155  0.0175 -0.5533  0.1634
  187HFI     F3 2727   0.277   1.599   3.020  0.1663 -0.2195 -0.0066
  187HFI     C3 2728   0.096   1.388   2.894 -0.0623 -0.4957 -0.2961
  187HFI     F4 2729   0.005   1.337   2.976 -0.4138 -0.4618  0.2568
  187HFI     F5 2730   0.094   1.326   2.779  0.3286  0.3978  0.2849
  187HFI     F6 2731   0.060   1.515   2.860 -0.1044  0.6550  0.4404
  187HFI     H1 2732   0.205   1.174   2.973  0.5815 -0.2346  0.2647
  187HFI     H2 2733   0.300   1.413   2.871  0.3271  0.8043  0.8753
  188HFI     O1 2734   0.960   0.166   2.744 -0.1974  0.0972  0.5968
  188HFI     C1 2735   1.045   0.070   2.818  0.2009 -0.1203 -0.5140
  188HFI     C2 2736   1.196   0.123   2.844 -0.3638  0.1070 -0.3129
  188HFI     F1 2737   1.272   0.094   2.741 -0.3606 -0.7530  0.1555
  188HFI     F2 2738   1.250   0.056   2.949  0.0685 -0.2727 -0.1536
  188HFI     F3 2739   1.212   0.256   2.868  0.0368 -0.2518 -0.7655
  188HFI     C3 2740   1.038  -0.068   2.752  0.0200  0.5580 -0.7987
  188HFI     F4 2741   1.139  -0.151   2.785 -0.1491  0.0411  0.5065
  188HFI     F5 2742   1.039  -0.057   2.616  0.3972  0.1011 -0.0644
  188HFI     F6 2743   0.925  -0.131   2.785 -0.1293  0.4505  0.4162
  188HFI     H1 2744   0.908   0.113   2.682 -0.2936 -0.4484  1.1380
  188HFI     H2 2745   0.996   0.057   2.916 -2.9018  2.4323 -1.6209
  189HFI     O1 2746   1.023   2.392   3.109  0.1796  0.8320 -0.3669
  189HFI     C1 2747   0.948   2.472   3.199 -0.5312  0.2632 -0.0138
  189HFI     C2 2748   1.031   2.579   3.267 -0.0665 -0.0599 -0.7464
  189HFI     F1 2749   1.119   2.515   3.358  0.4314 -0.3820  0.9408
  189HFI     F2 2750   0.953   2.663   3.330  0.1201  0.0402  0.1692
  189HFI     F3 2751   1.100   2.652   3.174 -0.1369  0.2751  0.1566
  189HFI     C3 2752   0.855   2.384   3.286  0.1174  0.0858  0.2533
  189HFI     F4 2753   0.916   2.325   3.395 -0.6931 -0.7501 -0.0588
  189HFI     F5 2754   0.805   2.275   3.218 -0.2765  0.1883  0.4019
  189HFI     F6 2755   0.750   2.446   3.335 -0.1365  0.3236  0.4555
  189HFI     H1 2756   1.081   2.338   3.165 -0.9013 -0.2367 -0.2569
  189HFI     H2 2757   0.873   2.530   3.144 -0.9333 -0.6389 -0.4391
  190HFI     O1 2758   2.947   1.382   3.682 -0.4836 -0.7267 -0.3086
  190HFI     C1 2759   2.858   1.409   3.795 -0.0693 -0.0740  0.3323
  190HFI     C2 2760   2.939   1.371   3.930 -1.0244 -0.2385  0.0372
  190HFI     F1 2761   2.872   1.390   4.047  0.0575 -0.4176 -0.0152
  190HFI     F2 2762   3.060   1.442   3.933 -0.5336 -0.3269  0.1010
  190HFI     F3 2763   2.976   1.238   3.913 -0.1548 -0.1157 -0.2166
  190HFI     C3 2764   2.720   1.331   3.784 -0.8003 -0.6127 -0.2737
  190HFI     F4 2765   2.631   1.353   3.886  0.4077 -0.7235 -0.3901
  190HFI     F5 2766   2.735   1.201   3.778 -0.1306  0.3436  0.5044
  190HFI     F6 2767   2.661   1.380   3.666 -0.0560  0.0929  0.0900
  190HFI     H1 2768   2.962   1.286   3.686 -0.3231 -0.7853 -1.9893
  190HFI     H2 2769   2.828   1.514   3.789 -1.5364 -0.4999 -0.0928
  191HFI     O1 2770   1.885   0.748   0.538  0.2591  0.5574 -0.1046
  191HFI     C1 2771   1.800   0.864   0.499  0.3767 -0.9224 -0.1032
  191HFI     C2 2772   1.742   0.943   0.626 -0.1837  0.9499  0.0601
  191HFI     F1 2773   1.848   0.984   0.703 -0.1891  0.1827  0.2723
  191HFI     F2 2774   1.660   0.865   0.699  0.3580  0.1246 -0.0378
  191HFI     F3 2775   1.684   1.051   0.590  0.2636  0.2102 -0.2955
  191HFI     C3 2776   1.690   0.812   0.408  0.4570  0.3052 -0.0762
  191HFI     F4 2777   1.745   0.765   0.294 -0.3918 -0.0812  0.0868
  191HFI     F5 2778   1.594   0.904   0.380 -0.0130 -0.3333  0.0663
  191HFI     F6 2779   1.627   0.703   0.456 -0.4234 -0.3519 -0.0176
  191HFI     H1 2780   1.854   0.670   0.488 -0.1275 -0.3362  1.5144
  191HFI     H2 2781   1.856   0.940   0.443  1.7241 -2.3863 -0.7691
  192HFI     O1 2782   0.140   0.954   0.756 -0.0249 -0.2576 -0.8819
  192HFI     C1 2783   0.164   0.963   0.903  0.6642  0.0890 -0.1527
  192HFI     C2 2784   0.246   1.090   0.931  0.0139 -0.5439 -0.0184
  192HFI     F1 2785   0.360   1.089   0.850  0.0789 -0.1462 -0.6309
  192HFI     F2 2786   0.288   1.095   1.058 -0.0924 -0.0266 -0.3243
  192HFI     F3 2787   0.185   1.204   0.910 -0.3501  0.0357 -0.2742
  192HFI     C3 2788   0.225   0.835   0.966 -0.2384 -0.3014 -0.0949
  192HFI     F4 2789   0.347   0.804   0.909 -0.4980  0.2805 -0.1104
  192HFI     F5 2790   0.146   0.737   0.936  0.2018  0.5986 -0.0658
  192HFI     F6 2791   0.238   0.842   1.099  0.0119  0.0311 -0.0152
  192HFI     H1 2792   0.225   0.957   0.709 -1.0734 -0.0146 -2.8012
  192HFI     H2 2793   0.063   0.983   0.942  0.4945 -0.5925 -0.2447
  193HFI     O1 2794   1.606   2.884   2.358 -0.5643 -0.5975 -0.2714
  193HFI     C1 2795   1.538   2.757   2.376 -0.5442  0.1214 -0.0833
  193HFI     C2 2796   1.623   2.633   2.337  0.3766  0.8805 -0.1396
  193HFI     F1 2797   1.729   2.627   2.414 -0.7228 -0.2148 -0.0429
  193HFI     F2 2798   1.672   2.641   2.211  0.3182 -0.2610 -0.5036
  193HFI     F3 2799   1.561   2.517   2.343 -0.2353 -0.2628  0.3694
  193HFI     C3 2800   1.392   2.742   2.323 -0.0310  0.5958  0.3186
  193HFI     F4 2801   1.335   2.650   2.402  0.4802  0.7731 -0.3174
  193HFI     F5 2802   1.378   2.708   2.194 -0.5353  0.4427  0.3344
  193HFI     F6 2803   1.329   2.861   2.344  0.4613 -0.2807  0.1877
  193HFI     H1 2804   1.626   2.904   2.266 -2.1838 -1.1129 -0.7576
  193HFI     H2 2805   1.530   2.732   2.483  0.4976  0.5654  0.1047
  194HFI     O1 2806   2.625   1.539   2.493 -0.2195  0.2271 -0.6885
  194HFI     C1 2807   2.645   1.429   2.400 -0.3569  0.2574 -0.1310
  194HFI     C2 2808   2.755   1.472   2.289 -0.6009  0.0217  0.0759
  194HFI     F1 2809   2.715   1.574   2.208 -0.6319 -0.0385  0.0905
  194HFI     F2 2810   2.784   1.362   2.222  0.6662  0.0040 -0.7338
  194HFI     F3 2811   2.875   1.509   2.346  0.1530  0.0919 -0.5310
  194HFI     C3 2812   2.512   1.394   2.331 -0.0417  0.0752  0.3404
  194HFI     F4 2813   2.405   1.387   2.415  0.0377  0.2865  0.2540
  194HFI     F5 2814   2.534   1.274   2.264  0.2332 -0.2469  0.2396
  194HFI     F6 2815   2.476   1.481   2.227  0.1090  0.3746 -0.0238
  194HFI     H1 2816   2.636   1.622   2.443  0.1777 -0.3131 -1.5064
  194HFI     H2 2817   2.669   1.333   2.446  1.7994 -0.4691 -2.6527
  195HFI     O1 2818   2.940   1.852   3.515  0.1589  0.0668  0.4389
  195HFI     C1 2819   3.081   1.868   3.549 -0.0496  0.2781  0.3913
  195HFI     C2 2820   3.178   1.787   3.468  0.5818 -0.5422  0.0075
  195HFI     F1 2821   3.305   1.800   3.512 -0.0769 -0.1883  0.3773
  195HFI     F2 2822   3.191   1.841   3.348  0.1443  0.0905  0.1343
  195HFI     F3 2823   3.148   1.651   3.459  0.4541 -0.0822  0.0439
  195HFI     C3 2824   3.100   1.842   3.697  0.6630  0.9456  0.0114
  195HFI     F4 2825   3.011   1.898   3.788  0.4954  0.4189 -0.3154
  195HFI     F5 2826   3.215   1.893   3.731 -0.3486  0.0839 -0.0789
  195HFI     F6 2827   3.101   1.704   3.715  0.1864 -0.4752 -1.3543
  195HFI     H1 2828   2.940   1.776   3.455  0.8228 -0.5256  1.1831
  195HFI     H2 2829   3.118   1.970   3.538  0.7007 -0.1260 -0.9016
  196HFI     O1 2830   2.766   0.449   3.543  0.0513 -0.3377 -0.4636
  196HFI     C1 2831   2.638   0.452   3.456 -0.7915 -0.0480  0.1950
  196HFI     C2 2832   2.506   0.438   3.545 -0.5569 -0.5928  0.3403
  196HFI     F1 2833   2.461   0.312   3.556 -0.0074  0.7676  0.1383
  196HFI     F2 2834   2.409   0.509   3.489 -0.1862  0.0098  0.2807
  196HFI     F3 2835   2.538   0.489   3.670  0.2372  0.0741  0.3574
  196HFI     C3 2836   2.638   0.352   3.333  0.4460  0.1190  0.0991
  196HFI     F4 2837   2.636   0.224   3.377 -0.1362  0.3747  0.1835
  196HFI     F5 2838   2.748   0.381   3.255  0.5154 -0.5625  0.3126
  196HFI     F6 2839   2.531   0.369   3.245  0.4162 -0.1562  0.7875
  196HFI     H1 2840   2.781   0.367   3.593 -3.1747 -1.1123 -0.6457
  196HFI     H2 2841   2.635   0.551   3.409  0.5219 -0.7869 -1.5195
  197HFI     O1 2842   1.479   0.882   3.315 -0.4013 -0.4933 -0.1080
  197HFI     C1 2843   1.548   0.990   3.380 -0.0112 -0.2457 -0.7229
  197HFI     C2 2844   1.453   1.108   3.408  0.1998  0.0009 -0.9356
  197HFI     F1 2845   1.393   1.147   3.294  0.3983 -0.0260  0.3745
  197HFI     F2 2846   1.504   1.217   3.465 -0.5059  0.1753  0.2877
  197HFI     F3 2847   1.345   1.064   3.481  0.1588 -0.9038 -0.1399
  197HFI     C3 2848   1.672   1.033   3.299  0.2797 -0.7682 -0.0381
  197HFI     F4 2849   1.756   1.096   3.378 -1.0289  0.1367 -0.2996
  197HFI     F5 2850   1.646   1.120   3.202 -0.1483 -0.0796  0.2895
  197HFI     F6 2851   1.740   0.923   3.247  0.0707 -0.1848  0.5590
  197HFI     H1 2852   1.391   0.906   3.283  0.6987  0.5046 -2.5138
  197HFI     H2 2853   1.597   0.957   3.472  0.2100  0.4285 -0.5969
  198HFI     O1 2854   2.881   1.876   3.225 -0.1844 -0.4257  0.1884
  198HFI     C1 2855   2.898   1.996   3.136  0.1095  0.1585  0.3437
  198HFI     C2 2856   2.940   1.947   2.996  0.2291  0.2556 -0.2842
  198HFI     F1 2857   3.067   1.898   2.995  0.0867 -0.0458 -0.4120
  198HFI     F2 2858   2.939   2.038   2.902  0.1070 -0.1327 -0.0707
  198HFI     F3 2859   2.853   1.852   2.958 -0.0793  0.5168 -0.1620
  198HFI     C3 2860   3.006   2.096   3.194  0.4530  1.3338  0.3961
  198HFI     F4 2861   2.968   2.124   3.321 -0.3872  0.1661 -0.1596
  198HFI     F5 2862   3.011   2.203   3.113  0.5245 -0.6721 -0.2703
  198HFI     F6 2863   3.131   2.052   3.198  0.4134  0.1725  0.2154
  198HFI     H1 2864   2.838   1.808   3.171  0.4874 -1.1614  0.5613
  198HFI     H2 2865   2.805   2.048   3.110 -0.0133 -1.7012 -3.3194
  199HFI     O1 2866   1.619   2.713   3.443  0.0256  0.1925  0.3150
  199HFI     C1 2867   1.614   2.588   3.368  0.4687  0.1666 -0.0416
  199HFI     C2 2868   1.678   2.605   3.226  0.2604  0.3351  0.0164
  199HFI     F1 2869   1.606   2.682   3.150  0.1725  0.4149  0.0507
  199HFI     F2 2870   1.687   2.485   3.158  0.1149 -0.0972 -0.0738
  199HFI     F3 2871   1.803   2.657   3.226  0.2351  0.5939  0.0226
  199HFI     C3 2872   1.470   2.518   3.373  0.0828  0.2334 -0.1040
  199HFI     F4 2873   1.425   2.517   3.499  0.6261  0.1912 -0.3277
  199HFI     F5 2874   1.484   2.387   3.337 -0.1963  0.5222 -0.2798
  199HFI     F6 2875   1.381   2.583   3.297 -0.1601 -0.9231 -0.3534
  199HFI     H1 2876   1.553   2.770   3.400  0.8731  0.2243 -0.9722
  199HFI     H2 2877   1.676   2.513   3.419  1.2874  0.0495 -1.1810
  200HFI     O1 2878   2.764   1.079   3.230 -0.1593  0.0132  0.0525
  200HFI     C1 2879   2.711   0.967   3.302 -0.1266 -0.4804  0.2888
  200HFI     C2 2880   2.800   0.924   3.418  0.9149 -0.8296  0.6000
  200HFI     F1 2881   2.923   0.899   3.381  0.0712  0.1742  0.1969
  200HFI     F2 2882   2.757   0.808   3.474  0.5211  0.0951  0.4344
  200HFI     F3 2883   2.809   1.013   3.513  0.0423  0.2891  0.0489
  200HFI     C3 2884   2.674   0.851   3.209 -0.2351 -0.2671  0.3625
  200HFI     F4 2885   2.578   0.778   3.268 -0.0468  0.4015  0.7462
  200HFI     F5 2886   2.782   0.772   3.173 -0.1980  0.6164  0.2989
  200HFI     F6 2887   2.626   0.916   3.093  0.3674 -0.0332 -0.2659
  200HFI     H1 2888   2.819   1.042   3.160 -0.4106  1.0507 -0.7130
  200HFI     H2 2889   2.615   0.999   3.344 -0.6683 -1.1262 -0.4272
  201HFI     O1 2890   3.353   2.323   2.944  0.4189 -0.2646 -0.1257
  201HFI     C1 2891   3.286   2.354   2.819 -0.2490 -0.2425 -0.2825
  201HFI     C2 2892   3.381   2.394   2.710 -0.4131 -0.1611 -0.4485
  201HFI     F1 2893   3.317   2.447   2.601  0.3923  0.1052 -0.0195
  201HFI     F2 2894   3.455   2.287   2.669  0.1599  0.5551  0.0725
  201HFI     F3 2895   3.465   2.489   2.758 -0.4775  0.2974 -0.1575
  201HFI     C3 2896   3.188   2.466   2.857  0.9024 -0.6565  0.7009
  201HFI     F4 2897   3.109   2.418   2.958 -0.1565  0.4481 -0.0747
  201HFI     F5 2898   3.096   2.509   2.768 -0.1340 -0.3279  0.5688
  201HFI     F6 2899   3.244   2.580   2.904 -0.5041  0.0297 -0.4394
  201HFI     H1 2900   3.294   2.345   3.018  0.1276  3.4388 -1.3463
  201HFI     H2 2901   3.225   2.272   2.780 -1.3725  0.5535 -0.2249
  202HFI     O1 2902   0.262   2.897   3.458 -0.2325 -0.6393 -0.4025
  202HFI     C1 2903   0.291   2.955   3.328  0.4571  0.2950 -0.2889
  202HFI     C2 2904   0.387   2.879   3.237  0.6346  0.7158  0.6588
  202HFI     F1 2905   0.335   2.753   3.217  0.0902 -1.0156 -0.5501
  202HFI     F2 2906   0.507   2.869   3.291 -0.5753  0.4473 -0.5012
  202HFI     F3 2907   0.405   2.939   3.114 -0.1768 -0.4504 -0.3158
  202HFI     C3 2908   0.325   3.100   3.344 -0.0251 -0.3285  0.1825
  202HFI     F4 2909   0.421   3.108   3.439 -0.5621 -0.4296  0.7685
  202HFI     F5 2910   0.212   3.157   3.400 -0.0490  0.0211 -0.6272
  202HFI     F6 2911   0.359   3.163   3.229  0.1997 -0.0799  0.0364
  202HFI     H1 2912   0.346   2.878   3.503 -0.0142 -2.3036 -1.4826
  202HFI     H2 2913   0.196   2.953   3.273 -0.0377  1.1618  0.5223
  203HFI     O1 2914   0.455   3.311   2.579 -0.6279  0.5651 -0.2536
  203HFI     C1 2915   0.456   3.309   2.727 -0.5705 -0.0738  0.2048
  203HFI     C2 2916   0.504   3.444   2.790 -0.0850 -0.0223  0.0079
  203HFI     F1 2917   0.625   3.485   2.735  0.2230  0.1215 -0.0158
  203HFI     F2 2918   0.523   3.435   2.922 -0.1906  0.2704  0.4821
  203HFI     F3 2919   0.414   3.545   2.774 -0.5676 -0.4445 -0.3649
  203HFI     C3 2920   0.524   3.183   2.781  0.3744 -0.1472 -0.1285
  203HFI     F4 2921   0.464   3.157   2.899 -0.0607  0.0550 -0.0866
  203HFI     F5 2922   0.661   3.204   2.783  0.2000 -0.5143  0.1260
  203HFI     F6 2923   0.498   3.082   2.697  0.0062  0.2085  0.4215
  203HFI     H1 2924   0.542   3.276   2.555 -1.2566 -0.1511 -1.5744
  203HFI     H2 2925   0.352   3.299   2.762 -1.2282  0.4182 -1.5564
  204HFI     O1 2926   0.055   0.379   0.110 -0.1698  0.5950  0.3046
  204HFI     C1 2927  -0.043   0.299   0.040  0.1660 -0.0241 -0.1367
  204HFI     C2 2928   0.022   0.159  -0.004  0.6342 -0.6823  0.3322
  204HFI     F1 2929  -0.059   0.096  -0.088 -0.0861  0.0159 -0.3990
  204HFI     F2 2930   0.038   0.078   0.101 -0.0584  0.1506  0.0718
  204HFI     F3 2931   0.149   0.170  -0.062  0.2337  0.5044 -0.6406
  204HFI     C3 2932  -0.104   0.372  -0.077  0.1699  0.0342  0.2673
  204HFI     F4 2933  -0.197   0.297  -0.145  0.1071  0.0837 -0.4179
  204HFI     F5 2934  -0.004   0.407  -0.163 -0.0979  0.3734 -0.0246
  204HFI     F6 2935  -0.160   0.487  -0.032 -0.6769  0.1304  0.6602
  204HFI     H1 2936   0.022   0.468   0.133  0.7386  1.4026 -1.4033
  204HFI     H2 2937  -0.130   0.277   0.102 -1.6200  1.4314 -2.0691
  205HFI     O1 2938   0.309   2.234   2.866 -0.5730  0.0297  0.0721
  205HFI     C1 2939   0.432   2.244   2.941 -0.8514 -0.1734  0.2537
  205HFI     C2 2940   0.434   2.368   3.042 -0.0423  0.1840 -0.8084
  205HFI     F1 2941   0.388   2.481   2.980  0.0295  0.5718  0.1546
  205HFI     F2 2942   0.558   2.396   3.094  0.1005 -0.0412  0.1958
  205HFI     F3 2943   0.361   2.343   3.150 -0.2867  0.2015 -0.0607
  205HFI     C3 2944   0.557   2.243   2.841  0.2138 -0.0666 -0.0028
  205HFI     F4 2945   0.564   2.363   2.784 -0.4679 -1.0899 -0.4755
  205HFI     F5 2946   0.541   2.144   2.741 -0.0972 -0.6360  0.6538
  205HFI     F6 2947   0.675   2.224   2.902 -0.3480  0.1014  0.4428
  205HFI     H1 2948   0.239   2.273   2.921  0.2156  0.7072  0.6059
  205HFI     H2 2949   0.433   2.149   2.996 -0.4886  0.4394  1.3280
  206HFI     O1 2950   0.405   1.728   3.316 -0.6371  0.6053  0.0968
  206HFI     C1 2951   0.311   1.825   3.280 -0.0180  0.0851  0.1472
  206HFI     C2 2952   0.368   1.968   3.282 -0.0732 -0.0639 -0.4790
  206HFI     F1 2953   0.277   2.050   3.229  0.2045 -0.4933 -0.0012
  206HFI     F2 2954   0.481   1.980   3.200  0.0518  0.0375 -0.1395
  206HFI     F3 2955   0.411   2.009   3.401 -0.3329 -0.1701 -0.5234
  206HFI     C3 2956   0.179   1.807   3.353  0.6105 -0.1557  1.6028
  206HFI     F4 2957   0.133   1.689   3.315 -0.1986  0.4616  0.5842
  206HFI     F5 2958   0.083   1.900   3.333 -0.2684 -0.2725  0.2497
  206HFI     F6 2959   0.201   1.806   3.490  0.3238  0.2027  0.4845
  206HFI     H1 2960   0.403   1.712   3.412 -2.6176 -2.7024 -0.4227
  206HFI     H2 2961   0.281   1.798   3.178 -0.2317 -0.9597  0.4768
  207HFI     O1 2962   1.411   0.524   3.745 -0.1242  0.0808  0.7375
  207HFI     C1 2963   1.323   0.639   3.720  0.2771  0.0553 -0.4542
  207HFI     C2 2964   1.399   0.769   3.683 -0.5330 -0.2323 -0.4692
  207HFI     F1 2965   1.314   0.877   3.673 -0.2674  0.2558 -0.4079
  207HFI     F2 2966   1.468   0.761   3.573  0.0221  0.0450 -0.0197
  207HFI     F3 2967   1.490   0.809   3.784  0.2954 -0.4752 -0.2613
  207HFI     C3 2968   1.228   0.667   3.844  0.3698  0.1683  1.1959
  207HFI     F4 2969   1.301   0.712   3.949  0.4755  0.0386 -0.2683
  207HFI     F5 2970   1.163   0.556   3.879  0.0138 -0.1295 -0.3298
  207HFI     F6 2971   1.130   0.755   3.818 -0.5416  0.2591  0.7262
  207HFI     H1 2972   1.448   0.538   3.834  0.5367 -2.6397  0.9400
  207HFI     H2 2973   1.258   0.611   3.637 -0.5421 -1.0448  0.5431
  208HFI     O1 2974   1.304   2.277   2.489 -0.5526  0.5168 -0.7557
  208HFI     C1 2975   1.269   2.160   2.410  0.4759 -0.2575  1.3244
  208HFI     C2 2976   1.336   2.035   2.470 -0.7833  0.0610  0.6912
  208HFI     F1 2977   1.320   1.922   2.403  0.1414 -0.4583  0.4048
  208HFI     F2 2978   1.287   2.013   2.594  0.3004  0.3178  0.3195
  208HFI     F3 2979   1.471   2.055   2.487 -0.1171 -0.4325  0.3667
  208HFI     C3 2980   1.303   2.185   2.261 -0.7258  0.5154 -0.0964
  208HFI     F4 2981   1.260   2.307   2.219 -0.0635 -0.3144  0.7283
  208HFI     F5 2982   1.248   2.093   2.180 -0.3622 -0.2400 -0.1751
  208HFI     F6 2983   1.437   2.181   2.231 -0.4518  0.5176 -0.2602
  208HFI     H1 2984   1.394   2.301   2.464  0.3809 -3.2843 -1.4195
  208HFI     H2 2985   1.164   2.132   2.426  0.6468 -1.6956  0.0448
  209HFI     O1 2986   3.266   2.744   2.485  0.7132 -0.0340 -0.1189
  209HFI     C1 2987   3.207   2.654   2.372 -0.1837  0.0996 -0.5855
  209HFI     C2 2988   3.304   2.586   2.284 -0.2932  0.1168  0.3835
  209HFI     F1 2989   3.264   2.459   2.257  0.2079  0.1362 -0.2486
  209HFI     F2 2990   3.425   2.579   2.344 -0.5427 -0.1048  0.1642
  209HFI     F3 2991   3.335   2.651   2.171  0.8242 -0.1717  0.3369
  209HFI     C3 2992   3.093   2.715   2.299  0.3333 -0.5474  0.4941
  209HFI     F4 2993   3.134   2.815   2.225 -0.3276 -0.2268  0.3913
  209HFI     F5 2994   2.996   2.763   2.389  0.3008  0.4943 -0.0778
  209HFI     F6 2995   3.020   2.625   2.220 -0.3867 -0.1300 -0.1533
  209HFI     H1 2996   3.327   2.804   2.439  1.3409 -0.0722  0.6526
  209HFI     H2 2997   3.155   2.571   2.423 -0.8113  0.6285 -0.3651
  210HFI     O1 2998   2.958   1.946   2.259 -0.5655  0.0092 -1.0306
  210HFI     C1 2999   3.040   2.009   2.360 -0.3595 -0.0671  0.1636
  210HFI     C2 3000   2.965   2.063   2.486 -0.0594 -1.1891  0.0575
  210HFI     F1 3001   2.914   2.190   2.476  0.2599 -0.3305 -0.3004
  210HFI     F2 3002   3.041   2.053   2.593 -0.2705  0.0524  0.1834
  210HFI     F3 3003   2.863   1.982   2.516 -0.0986  0.2572 -0.3506
  210HFI     C3 3004   3.141   2.127   2.318  0.5897  0.1911  0.7060
  210HFI     F4 3005   3.080   2.210   2.227  0.4124 -0.0261 -0.0179
  210HFI     F5 3006   3.248   2.076   2.263 -0.5757 -0.6110  0.5364
  210HFI     F6 3007   3.180   2.198   2.426  0.3377  0.1002 -0.4350
  210HFI     H1 3008   3.011   1.914   2.185 -0.1588  0.4778 -0.9428
  210HFI     H2 3009   3.116   1.937   2.391 -2.1305 -2.6139 -1.1751
  211HFI     O1 3010   2.673   2.829   2.450 -0.0607  0.0094 -0.1648
  211HFI     C1 3011   2.615   2.913   2.340 -0.2869  0.1752 -0.5506
  211HFI     C2 3012   2.715   3.035   2.308  0.2953  0.3832 -0.4293
  211HFI     F1 3013   2.729   3.134   2.407 -0.2654  0.0086  0.3985
  211HFI     F2 3014   2.666   3.089   2.194 -0.2531 -0.5677  0.2973
  211HFI     F3 3015   2.834   2.982   2.284 -0.5614  0.1839 -0.0695
  211HFI     C3 3016   2.470   2.961   2.382 -1.0061 -0.4671  0.2298
  211HFI     F4 3017   2.465   3.046   2.485 -0.2002  0.1292  0.2711
  211HFI     F5 3018   2.385   2.854   2.410  0.3157  0.1752 -0.2878
  211HFI     F6 3019   2.409   3.028   2.275 -0.6291 -0.1670 -0.1849
  211HFI     H1 3020   2.692   2.886   2.526 -0.5852 -0.3934  0.2745
  211HFI     H2 3021   2.604   2.844   2.255  2.5340  0.0075 -0.8322
  212HFI     O1 3022   1.401   1.944   3.426 -0.0350 -0.9076 -0.5342
  212HFI     C1 3023   1.369   2.061   3.354  0.9906 -0.3319  0.2507
  212HFI     C2 3024   1.219   2.112   3.376  0.6332 -0.2970 -0.2074
  212HFI     F1 3025   1.138   2.017   3.333  0.1828  0.2664 -0.5355
  212HFI     F2 3026   1.187   2.227   3.317 -0.3458 -0.6725 -0.2267
  212HFI     F3 3027   1.201   2.138   3.503  0.0528 -0.8481  0.2845
  212HFI     C3 3028   1.401   2.046   3.210 -0.3585 -0.8526 -0.0801
  212HFI     F4 3029   1.339   1.938   3.147  0.0166 -0.1722  0.2840
  212HFI     F5 3030   1.534   2.022   3.193 -0.1147  0.0802  0.2495
  212HFI     F6 3031   1.378   2.160   3.149  0.1194  0.0025 -0.3394
  212HFI     H1 3032   1.350   1.868   3.394 -1.1849  0.9836 -3.3823
  212HFI     H2 3033   1.425   2.144   3.399 -2.7152  1.3813  1.8981
  213HFI     O1 3034   1.444   0.488   0.530 -0.3203 -0.0796  0.1958
  213HFI     C1 3035   1.343   0.470   0.421  0.2893  0.1472  0.7133
  213HFI     C2 3036   1.194   0.466   0.475 -0.7170 -0.2449 -0.6915
  213HFI     F1 3037   1.181   0.581   0.549 -0.1941 -0.1740 -0.2258
  213HFI     F2 3038   1.180   0.367   0.562  0.3235  0.1637  0.1392
  213HFI     F3 3039   1.100   0.460   0.381  0.2289 -0.3891 -0.1179
  213HFI     C3 3040   1.379   0.349   0.331 -0.7500 -0.1883  0.5064
  213HFI     F4 3041   1.300   0.343   0.226 -0.3250 -0.4635 -0.1129
  213HFI     F5 3042   1.384   0.231   0.394 -0.7954 -0.4610  0.7368
  213HFI     F6 3043   1.509   0.376   0.279 -0.1050 -0.2432 -0.0264
  213HFI     H1 3044   1.504   0.412   0.521  0.4167  0.7754 -2.3866
  213HFI     H2 3045   1.349   0.558   0.356  0.2677 -0.2063  0.2343
  214HFI     O1 3046   1.391   3.230   0.802 -0.0670 -0.3450 -0.2103
  214HFI     C1 3047   1.361   3.223   0.653 -0.2349  0.2079  0.2204
  214HFI     C2 3048   1.349   3.361   0.594 -0.4605  0.1082  0.2074
  214HFI     F1 3049   1.239   3.415   0.634 -0.6235 -0.0205 -0.1172
  214HFI     F2 3050   1.347   3.352   0.463 -0.3474  0.2552  0.0748
  214HFI     F3 3051   1.445   3.447   0.634 -0.3425 -0.2522  0.7385
  214HFI     C3 3052   1.253   3.123   0.609 -0.7319  0.3627  0.0768
  214HFI     F4 3053   1.287   3.004   0.660  0.0333  0.2944  0.2129
  214HFI     F5 3054   1.242   3.111   0.477  0.8385  0.4419  0.0043
  214HFI     F6 3055   1.126   3.157   0.648  0.0519 -0.2621 -0.4414
  214HFI     H1 3056   1.344   3.305   0.842 -0.1384 -0.4516 -0.0934
  214HFI     H2 3057   1.454   3.188   0.607  0.3497  2.3033 -0.2186
  215HFI     O1 3058   1.454   2.921   3.365  0.2158 -0.5381 -0.7225
  215HFI     C1 3059   1.329   2.908   3.301 -0.1037  0.0844 -0.2413
  215HFI     C2 3060   1.311   3.013   3.192 -0.2535 -0.4373  0.6355
  215HFI     F1 3061   1.422   3.019   3.112  0.1546  0.3248 -0.5338
  215HFI     F2 3062   1.281   3.139   3.240  0.4210 -0.2569  0.2015
  215HFI     F3 3063   1.215   2.987   3.100  0.3561  0.0078  0.5868
  215HFI     C3 3064   1.219   2.926   3.409 -1.0843 -0.3150  0.1108
  215HFI     F4 3065   1.104   2.907   3.352 -0.7141  0.2882  0.1069
  215HFI     F5 3066   1.220   3.048   3.468  0.4656  0.2412  0.0732
  215HFI     F6 3067   1.234   2.830   3.498 -0.0526  0.0946  0.0140
  215HFI     H1 3068   1.486   3.012   3.349  0.9256 -0.7881 -0.7737
  215HFI     H2 3069   1.309   2.806   3.266  1.8176 -0.1370 -0.7436
  216HFI     O1 3070   1.907   1.607   3.277 -1.0718  0.8007 -0.4526
  216HFI     C1 3071   1.781   1.600   3.356 -0.4963 -0.7331 -0.3406
  216HFI     C2 3072   1.723   1.464   3.401 -0.4815 -0.3831 -0.6118
  216HFI     F1 3073   1.618   1.493   3.483  0.6046 -0.4403 -0.0215
  216HFI     F2 3074   1.822   1.405   3.472 -0.1139 -0.5160  0.4259
  216HFI     F3 3075   1.675   1.387   3.299  0.1429 -0.0752 -0.4772
  216HFI     C3 3076   1.670   1.693   3.296  0.0265  0.6393 -0.1927
  216HFI     F4 3077   1.565   1.720   3.375  0.2782  0.1010 -0.8347
  216HFI     F5 3078   1.618   1.646   3.187  0.4236 -0.1578  0.7386
  216HFI     F6 3079   1.730   1.811   3.264 -0.6915 -0.5661  0.4115
  216HFI     H1 3080   1.885   1.559   3.195 -2.5019  0.6399  0.0126
  216HFI     H2 3081   1.813   1.642   3.453 -1.1501 -1.3571  0.1506
  217HFI     O1 3082   3.019   0.426   2.460  0.3396 -0.6405 -0.2866
  217HFI     C1 3083   3.116   0.525   2.419 -0.3816  0.6861  0.3369
  217HFI     C2 3084   3.215   0.471   2.311  0.1702  0.0847  0.2358
  217HFI     F1 3085   3.304   0.559   2.287 -0.3520  0.0201  0.1418
  217HFI     F2 3086   3.144   0.452   2.202 -0.0059  0.3281 -0.1142
  217HFI     F3 3087   3.274   0.354   2.339  0.4220  0.8662 -0.2992
  217HFI     C3 3088   3.180   0.587   2.542 -0.0195 -0.2240 -0.1397
  217HFI     F4 3089   3.242   0.703   2.517 -0.1722  0.6581  0.2331
  217HFI     F5 3090   3.275   0.511   2.599 -0.6017  0.0118  0.2507
  217HFI     F6 3091   3.090   0.604   2.640  0.0375 -0.1116 -0.4600
  217HFI     H1 3092   3.061   0.339   2.472  1.4150 -0.2927 -1.4491
  217HFI     H2 3093   3.063   0.609   2.373  0.9183  1.5541  0.3970
  218HFI     O1 3094   0.055   0.100   0.680  0.0666 -0.0047 -0.3177
  218HFI     C1 3095  -0.032   0.022   0.595 -0.5082 -0.6529  0.0854
  218HFI     C2 3096   0.044  -0.071   0.489 -0.0295 -0.0391  0.2637
  218HFI     F1 3097   0.150  -0.123   0.556  0.3785 -0.6760  0.0944
  218HFI     F2 3098   0.093   0.002   0.380 -0.1266  0.2027  0.1591
  218HFI     F3 3099  -0.029  -0.174   0.440 -0.0005  0.5070 -0.0894
  218HFI     C3 3100  -0.150   0.103   0.520 -0.1690  0.3528  0.1593
  218HFI     F4 3101  -0.248   0.144   0.613  0.4616  0.5015  0.4481
  218HFI     F5 3102  -0.201   0.027   0.424  0.3258 -0.3999 -0.0865
  218HFI     F6 3103  -0.099   0.212   0.459  0.3838 -0.2562 -0.1717
  218HFI     H1 3104   0.096   0.179   0.639  2.2291 -1.5529 -1.2571
  218HFI     H2 3105  -0.089  -0.045   0.660 -2.4446 -0.1288 -1.0343
  219HFI     O1 3106   3.238   2.516   3.236 -0.1032  0.2927  0.4478
  219HFI     C1 3107   3.339   2.472   3.333  0.3744  0.6327  0.0004
  219HFI     C2 3108   3.480   2.530   3.299 -0.3536  0.7875  0.4171
  219HFI     F1 3109   3.467   2.660   3.304 -0.2364  0.5916 -0.0932
  219HFI     F2 3110   3.517   2.504   3.176 -0.4854 -0.2926  0.0869
  219HFI     F3 3111   3.572   2.485   3.382  0.4574 -0.0396 -0.2545
  219HFI     C3 3112   3.322   2.316   3.352  0.0926 -0.2343 -0.4291
  219HFI     F4 3113   3.197   2.284   3.399  0.1349 -0.4488 -0.3925
  219HFI     F5 3114   3.411   2.279   3.451  0.1600  0.7775  0.5195
  219HFI     F6 3115   3.350   2.247   3.241 -0.3619  0.2034 -0.0441
  219HFI     H1 3116   3.214   2.610   3.243 -0.6488  0.0641  1.7599
  219HFI     H2 3117   3.317   2.505   3.435 -1.3983  2.0047 -0.8079
  220HFI     O1 3118   0.975   3.286   2.350 -0.4547 -0.1572 -0.2635
  220HFI     C1 3119   0.879   3.208   2.283  0.3405 -0.8512  0.2070
  220HFI     C2 3120   0.737   3.262   2.325 -0.1468 -0.5473  0.9281
  220HFI     F1 3121   0.717   3.246   2.463 -0.4332 -0.3696  0.3043
  220HFI     F2 3122   0.643   3.205   2.252  0.0228 -0.4471 -0.6588
  220HFI     F3 3123   0.732   3.393   2.299  0.5075  0.5692 -0.1084
  220HFI     C3 3124   0.890   3.052   2.310  0.1431  0.3879  0.5534
  220HFI     F4 3125   0.891   3.029   2.443  0.0190 -0.0288 -0.7670
  220HFI     F5 3126   1.006   3.010   2.260  0.5590  0.1293 -0.1423
  220HFI     F6 3127   0.790   2.987   2.250  0.4311 -0.3957 -0.1772
  220HFI     H1 3128   1.063   3.248   2.331 -0.0220  0.2562  0.8685
  220HFI     H2 3129   0.883   3.223   2.174 -2.9976  0.1666  0.1684
  221HFI     O1 3130   2.053   0.807   3.113 -0.5106  0.1904 -0.6631
  221HFI     C1 3131   2.095   0.671   3.124  0.7664  0.0361  0.2644
  221HFI     C2 3132   1.994   0.587   3.210  0.6495  0.1516 -0.3027
  221HFI     F1 3133   1.873   0.620   3.172 -0.1458 -0.0969 -0.3597
  221HFI     F2 3134   1.997   0.610   3.342 -0.4446 -0.0573  0.5303
  221HFI     F3 3135   2.000   0.451   3.192 -0.1571 -0.5179 -0.1011
  221HFI     C3 3136   2.244   0.667   3.178 -0.1506  0.0970  0.0007
  221HFI     F4 3137   2.331   0.714   3.083  0.2928 -0.4410  0.1194
  221HFI     F5 3138   2.281   0.542   3.222 -0.1040  0.1111  0.2043
  221HFI     F6 3139   2.250   0.746   3.287  0.0730  0.1166 -0.1145
  221HFI     H1 3140   2.037   0.847   3.201  1.0332 -0.2417 -0.1688
  221HFI     H2 3141   2.093   0.628   3.023  1.2454 -0.9020  0.6436
  222HFI     O1 3142   2.534   2.377   2.441  0.6811  0.2083 -0.6754
  222HFI     C1 3143   2.557   2.504   2.375  0.2526 -0.2055 -0.2278
  222HFI     C2 3144   2.439   2.539   2.281 -0.5407 -0.3967  0.1733
  222HFI     F1 3145   2.324   2.552   2.349  0.2479 -0.1546  0.0728
  222HFI     F2 3146   2.428   2.447   2.186  0.0956  0.1010  0.2554
  222HFI     F3 3147   2.463   2.660   2.226  0.4534 -0.1340 -0.1870
  222HFI     C3 3148   2.692   2.500   2.305  0.4452 -0.6733  0.2492
  222HFI     F4 3149   2.787   2.497   2.397 -0.0065  0.0760  0.4394
  222HFI     F5 3150   2.725   2.601   2.223 -0.2952  0.0928 -0.2173
  222HFI     F6 3151   2.713   2.388   2.232 -0.8886 -0.7525  0.3919
  222HFI     H1 3152   2.608   2.315   2.436 -1.5760 -2.8062  1.2219
  222HFI     H2 3153   2.548   2.585   2.448  0.2978 -0.6993  0.3224
  223HFI     O1 3154   2.200   1.098   0.978 -0.0179 -0.0077  0.2021
  223HFI     C1 3155   2.060   1.058   0.956 -0.0280 -0.2423  0.1333
  223HFI     C2 3156   1.953   1.142   1.035 -0.1233 -0.3336 -0.2108
  223HFI     F1 3157   1.827   1.100   1.008  0.1654 -0.6918 -0.5505
  223HFI     F2 3158   1.966   1.271   1.002 -0.0281 -0.2021 -0.2765
  223HFI     F3 3159   1.969   1.145   1.171 -0.0741  0.5546  0.1803
  223HFI     C3 3160   2.042   0.902   0.971 -0.5939 -0.3812  0.3744
  223HFI     F4 3161   1.918   0.852   0.964  0.3787  0.0311  0.2275
  223HFI     F5 3162   2.081   0.875   1.096 -0.0220 -0.0866  0.3864
  223HFI     F6 3163   2.126   0.843   0.884 -0.0780 -0.3648  0.0721
  223HFI     H1 3164   2.210   1.103   1.074 -1.3637 -0.8471  0.3912
  223HFI     H2 3165   2.041   1.080   0.850  1.1791 -0.6410 -0.1797
  224HFI     O1 3166   1.309   1.587   3.084 -0.0709  0.0478 -0.6549
  224HFI     C1 3167   1.292   1.670   2.964  0.7778 -0.8556 -0.2274
  224HFI     C2 3168   1.153   1.646   2.889 -0.3961  0.0494  0.6306
  224HFI     F1 3169   1.146   1.525   2.832  0.0293 -0.5542 -0.5743
  224HFI     F2 3170   1.126   1.745   2.801 -0.2705  0.2953  0.2247
  224HFI     F3 3171   1.054   1.650   2.978 -0.1575 -0.7505 -0.4782
  224HFI     C3 3172   1.410   1.646   2.858 -0.1232 -0.1069 -0.5044
  224HFI     F4 3173   1.401   1.519   2.818 -0.3566 -0.0519 -0.3503
  224HFI     F5 3174   1.537   1.661   2.907 -0.0389 -0.5603 -0.2813
  224HFI     F6 3175   1.410   1.728   2.748 -0.2417 -0.6008 -0.3510
  224HFI     H1 3176   1.301   1.494   3.055  1.8362  0.5705 -2.9827
  224HFI     H2 3177   1.286   1.778   2.985 -4.3681 -0.9923 -0.2361
  225HFI     O1 3178   1.005   2.406   2.831  0.2538  0.3803 -0.2363
  225HFI     C1 3179   1.083   2.292   2.790 -0.2523 -0.6011 -0.2172
  225HFI     C2 3180   0.994   2.165   2.786 -0.8119 -0.6513 -0.1319
  225HFI     F1 3181   0.890   2.184   2.696  0.2180 -0.3269  0.0173
  225HFI     F2 3182   0.930   2.135   2.908  0.1551 -0.6460  0.2927
  225HFI     F3 3183   1.065   2.058   2.748 -0.7166  0.5780  0.5028
  225HFI     C3 3184   1.201   2.266   2.880 -0.5744  0.2762 -0.4064
  225HFI     F4 3185   1.293   2.189   2.821  0.1539  0.0684  0.4189
  225HFI     F5 3186   1.172   2.200   2.993  0.1603 -0.4188 -0.3972
  225HFI     F6 3187   1.263   2.382   2.923  0.0712 -0.4566 -0.2660
  225HFI     H1 3188   0.986   2.404   2.926  0.8621 -0.9088 -0.1405
  225HFI     H2 3189   1.124   2.310   2.690  2.0771 -0.8905  0.6450
  226HFI     O1 3190   1.281   0.465   2.456  0.2299 -0.5997  0.0641
  226HFI     C1 3191   1.415   0.445   2.391  0.2473 -0.4455 -0.5866
  226HFI     C2 3192   1.442   0.580   2.300 -0.2612 -0.1757 -0.3951
  226HFI     F1 3193   1.559   0.580   2.234 -0.6795 -0.8122 -0.0446
  226HFI     F2 3194   1.448   0.685   2.384 -0.2779 -0.1933  0.2281
  226HFI     F3 3195   1.342   0.601   2.214  0.1489 -0.5799 -0.1234
  226HFI     C3 3196   1.444   0.316   2.310  0.0324  0.4258 -0.5795
  226HFI     F4 3197   1.401   0.210   2.375  0.1629 -0.2627  0.5190
  226HFI     F5 3198   1.574   0.295   2.280  0.0152 -0.7875 -0.0769
  226HFI     F6 3199   1.382   0.314   2.190 -0.0338  0.2900  0.2711
  226HFI     H1 3200   1.216   0.484   2.386 -0.5102 -3.5808 -0.1335
  226HFI     H2 3201   1.499   0.455   2.462  0.3690  1.8563 -1.0069
  227HFI     O1 3202   0.792   1.586   3.073 -0.1620 -0.3376 -0.2372
  227HFI     C1 3203   0.673   1.647   3.018  0.0325  0.0418  0.1116
  227HFI     C2 3204   0.622   1.568   2.892  0.3090  0.1412  0.1321
  227HFI     F1 3205   0.608   1.441   2.922  0.4437 -0.2415  0.2625
  227HFI     F2 3206   0.710   1.569   2.784  0.5362 -0.7598 -0.0378
  227HFI     F3 3207   0.498   1.606   2.854  0.0300  0.8357 -0.0273
  227HFI     C3 3208   0.702   1.795   2.990  0.7913  0.4651 -0.1021
  227HFI     F4 3209   0.787   1.814   2.881 -0.0724  0.1916 -0.2486
  227HFI     F5 3210   0.753   1.865   3.087  0.2716  0.0154  0.2068
  227HFI     F6 3211   0.587   1.853   2.959 -0.8584 -0.0137 -0.5386
  227HFI     H1 3212   0.869   1.610   3.019  0.7233  1.2950  1.6628
  227HFI     H2 3213   0.586   1.639   3.084 -0.7359 -0.9667 -1.0071
  228HFI     O1 3214   0.889   2.667   2.924  0.3464  0.2648 -0.0609
  228HFI     C1 3215   0.759   2.692   2.853 -0.2075  0.1621  0.2279
  228HFI     C2 3216   0.778   2.760   2.715 -0.7196  0.4437 -0.0557
  228HFI     F1 3217   0.881   2.687   2.658  0.4658 -0.3847  0.1979
  228HFI     F2 3218   0.814   2.889   2.728  0.4369 -0.4309 -0.0064
  228HFI     F3 3219   0.665   2.755   2.641  0.1923  0.1747  0.2835
  228HFI     C3 3220   0.661   2.760   2.945  0.0692 -1.1883 -0.7628
  228HFI     F4 3221   0.704   2.887   2.982  0.2161 -0.0859  1.0808
  228HFI     F5 3222   0.645   2.687   3.058 -0.0982  0.2430 -0.2452
  228HFI     F6 3223   0.538   2.774   2.883  0.4853  0.2257 -0.2799
  228HFI     H1 3224   0.952   2.640   2.855 -0.7497 -0.7071 -0.7005
  228HFI     H2 3225   0.720   2.592   2.832  0.2169 -0.2109  1.2086
   3.40320   3.43847   3.80000
