HFIP comparator n4
 3225
    1GR      C1    1   0.000   0.000   1.900  0.0000  0.0000  0.0000
    1GR      C2    2   0.142   0.000   1.900  0.0000  0.0000  0.0000
    1GR      C3    3   0.213   0.123   1.900  0.0000  0.0000  0.0000
    1GR      C4    4   0.354   0.123   1.900  0.0000  0.0000  0.0000
    1GR      C5    5   0.000   0.246   1.900  0.0000  0.0000  0.0000
    1GR      C6    6   0.142   0.246   1.900  0.0000  0.0000  0.0000
    1GR      C7    7   0.213   0.368   1.900  0.0000  0.0000  0.0000
    1GR      C8    8   0.354   0.368   1.900  0.0000  0.0000  0.0000
    1GR      C9    9   0.000   0.491   1.900  0.0000  0.0000  0.0000
    1GR     C10   10   0.142   0.491   1.900  0.0000  0.0000  0.0000
    1GR     C11   11   0.213   0.614   1.900  0.0000  0.0000  0.0000
    1GR     C12   12   0.354   0.614   1.900  0.0000  0.0000  0.0000
    1GR     C13   13   0.000   0.737   1.900  0.0000  0.0000  0.0000
    1GR     C14   14   0.142   0.737   1.900  0.0000  0.0000  0.0000
    1GR     C15   15   0.213   0.860   1.900  0.0000  0.0000  0.0000
    1GR     C16   16   0.354   0.860   1.900  0.0000  0.0000  0.0000
    1GR     C17   17   0.000   0.982   1.900  0.0000  0.0000  0.0000
    1GR     C18   18   0.142   0.982   1.900  0.0000  0.0000  0.0000
    1GR     C19   19   0.213   1.105   1.900  0.0000  0.0000  0.0000
    1GR     C20   20   0.354   1.105   1.900  0.0000  0.0000  0.0000
    1GR     C21   21   0.000   1.228   1.900  0.0000  0.0000  0.0000
    1GR     C22   22   0.142   1.228   1.900  0.0000  0.0000  0.0000
    1GR     C23   23   0.213   1.351   1.900  0.0000  0.0000  0.0000
    1GR     C24   24   0.354   1.351   1.900  0.0000  0.0000  0.0000
    1GR     C25   25   0.000   1.474   1.900  0.0000  0.0000  0.0000
    1GR     C26   26   0.142   1.474   1.900  0.0000  0.0000  0.0000
    1GR     C27   27   0.213   1.596   1.900  0.0000  0.0000  0.0000
    1GR     C28   28   0.354   1.596   1.900  0.0000  0.0000  0.0000
    1GR     C29   29   0.000   1.719   1.900  0.0000  0.0000  0.0000
    1GR     C30   30   0.142   1.719   1.900  0.0000  0.0000  0.0000
    1GR     C31   31   0.213   1.842   1.900  0.0000  0.0000  0.0000
    1GR     C32   32   0.354   1.842   1.900  0.0000  0.0000  0.0000
    1GR     C33   33   0.000   1.965   1.900  0.0000  0.0000  0.0000
    1GR     C34   34   0.142   1.965   1.900  0.0000  0.0000  0.0000
    1GR     C35   35   0.213   2.088   1.900  0.0000  0.0000  0.0000
    1GR     C36   36   0.354   2.088   1.900  0.0000  0.0000  0.0000
    1GR     C37   37   0.000   2.210   1.900  0.0000  0.0000  0.0000
    1GR     C38   38   0.142   2.210   1.900  0.0000  0.0000  0.0000
    1GR     C39   39   0.213   2.333   1.900  0.0000  0.0000  0.0000
    1GR     C40   40   0.354   2.333   1.900  0.0000  0.0000  0.0000
    1GR     C41   41   0.000   2.456   1.900  0.0000  0.0000  0.0000
    1GR     C42   42   0.142   2.456   1.900  0.0000  0.0000  0.0000
    1GR     C43   43   0.213   2.579   1.900  0.0000  0.0000  0.0000
    1GR     C44   44   0.354   2.579   1.900  0.0000  0.0000  0.0000
    1GR     C45   45   0.000   2.702   1.900  0.0000  0.0000  0.0000
    1GR     C46   46   0.142   2.702   1.900  0.0000  0.0000  0.0000
    1GR     C47   47   0.213   2.824   1.900  0.0000  0.0000  0.0000
    1GR     C48   48   0.354   2.824   1.900  0.0000  0.0000  0.0000
    1GR     C49   49   0.000   2.947   1.900  0.0000  0.0000  0.0000
    1GR     C50   50   0.142   2.947   1.900  0.0000  0.0000  0.0000
    1GR     C51   51   0.213   3.070   1.900  0.0000  0.0000  0.0000
    1GR     C52   52   0.354   3.070   1.900  0.0000  0.0000  0.0000
    1GR     C53   53   0.000   3.193   1.900  0.0000  0.0000  0.0000
    1GR     C54   54   0.142   3.193   1.900  0.0000  0.0000  0.0000
    1GR     C55   55   0.213   3.316   1.900  0.0000  0.0000  0.0000
    1GR     C56   56   0.354   3.316   1.900  0.0000  0.0000  0.0000
    1GR     C57   57   0.425   0.000   1.900  0.0000  0.0000  0.0000
    1GR     C58   58   0.567   0.000   1.900  0.0000  0.0000  0.0000
    1GR     C59   59   0.638   0.123   1.900  0.0000  0.0000  0.0000
    1GR     C60   60   0.780   0.123   1.900  0.0000  0.0000  0.0000
    1GR     C61   61   0.425   0.246   1.900  0.0000  0.0000  0.0000
    1GR     C62   62   0.567   0.246   1.900  0.0000  0.0000  0.0000
    1GR     C63   63   0.638   0.368   1.900  0.0000  0.0000  0.0000
    1GR     C64   64   0.780   0.368   1.900  0.0000  0.0000  0.0000
    1GR     C65   65   0.425   0.491   1.900  0.0000  0.0000  0.0000
    1GR     C66   66   0.567   0.491   1.900  0.0000  0.0000  0.0000
    1GR     C67   67   0.638   0.614   1.900  0.0000  0.0000  0.0000
    1GR     C68   68   0.780   0.614   1.900  0.0000  0.0000  0.0000
    1GR     C69   69   0.425   0.737   1.900  0.0000  0.0000  0.0000
    1GR     C70   70   0.567   0.737   1.900  0.0000  0.0000  0.0000
    1GR     C71   71   0.638   0.860   1.900  0.0000  0.0000  0.0000
    1GR     C72   72   0.780   0.860   1.900  0.0000  0.0000  0.0000
    1GR     C73   73   0.425   0.982   1.900  0.0000  0.0000  0.0000
    1GR     C74   74   0.567   0.982   1.900  0.0000  0.0000  0.0000
    1GR     C75   75   0.638   1.105   1.900  0.0000  0.0000  0.0000
    1GR     C76   76   0.780   1.105   1.900  0.0000  0.0000  0.0000
    1GR     C77   77   0.425   1.228   1.900  0.0000  0.0000  0.0000
    1GR     C78   78   0.567   1.228   1.900  0.0000  0.0000  0.0000
    1GR     C79   79   0.638   1.351   1.900  0.0000  0.0000  0.0000
    1GR     C80   80   0.780   1.351   1.900  0.0000  0.0000  0.0000
    1GR     C81   81   0.425   1.474   1.900  0.0000  0.0000  0.0000
    1GR     C82   82   0.567   1.474   1.900  0.0000  0.0000  0.0000
    1GR     C83   83   0.638   1.596   1.900  0.0000  0.0000  0.0000
    1GR     C84   84   0.780   1.596   1.900  0.0000  0.0000  0.0000
    1GR     C85   85   0.425   1.719   1.900  0.0000  0.0000  0.0000
    1GR     C86   86   0.567   1.719   1.900  0.0000  0.0000  0.0000
    1GR     C87   87   0.638   1.842   1.900  0.0000  0.0000  0.0000
    1GR     C88   88   0.780   1.842   1.900  0.0000  0.0000  0.0000
    1GR     C89   89   0.425   1.965   1.900  0.0000  0.0000  0.0000
    1GR     C90   90   0.567   1.965   1.900  0.0000  0.0000  0.0000
    1GR     C91   91   0.638   2.088   1.900  0.0000  0.0000  0.0000
    1GR     C92   92   0.780   2.088   1.900  0.0000  0.0000  0.0000
    1GR     C93   93   0.425   2.210   1.900  0.0000  0.0000  0.0000
    1GR     C94   94   0.567   2.210   1.900  0.0000  0.0000  0.0000
    1GR     C95   95   0.638   2.333   1.900  0.0000  0.0000  0.0000
    1GR     C96   96   0.780   2.333   1.900  0.0000  0.0000  0.0000
    1GR     C97   97   0.425   2.456   1.900  0.0000  0.0000  0.0000
    1GR     C98   98   0.567   2.456   1.900  0.0000  0.0000  0.0000
    1GR     C99   99   0.638   2.579   1.900  0.0000  0.0000  0.0000
    1GR    C100  100   0.780   2.579   1.900  0.0000  0.0000  0.0000
    1GR    C101  101   0.425   2.702   1.900  0.0000  0.0000  0.0000
    1GR    C102  102   0.567   2.702   1.900  0.0000  0.0000  0.0000
    1GR    C103  103   0.638   2.824   1.900  0.0000  0.0000  0.0000
    1GR    C104  104   0.780   2.824   1.900  0.0000  0.0000  0.0000
    1GR    C105  105   0.425   2.947   1.900  0.0000  0.0000  0.0000
    1GR    C106  106   0.567   2.947   1.900  0.0000  0.0000  0.0000
    1GR    C107  107   0.638   3.070   1.900  0.0000  0.0000  0.0000
    1GR    C108  108   0.780   3.070   1.900  0.0000  0.0000  0.0000
    1GR    C109  109   0.425   3.193   1.900  0.0000  0.0000  0.0000
    1GR    C110  110   0.567   3.193   1.900  0.0000  0.0000  0.0000
    1GR    C111  111   0.638   3.316   1.900  0.0000  0.0000  0.0000
    1GR    C112  112   0.780   3.316   1.900  0.0000  0.0000  0.0000
    1GR    C113  113   0.851   0.000   1.900  0.0000  0.0000  0.0000
    1GR    C114  114   0.993   0.000   1.900  0.0000  0.0000  0.0000
    1GR    C115  115   1.064   0.123   1.900  0.0000  0.0000  0.0000
    1GR    C116  116   1.205   0.123   1.900  0.0000  0.0000  0.0000
    1GR    C117  117   0.851   0.246   1.900  0.0000  0.0000  0.0000
    1GR    C118  118   0.993   0.246   1.900  0.0000  0.0000  0.0000
    1GR    C119  119   1.064   0.368   1.900  0.0000  0.0000  0.0000
    1GR    C120  120   1.205   0.368   1.900  0.0000  0.0000  0.0000
    1GR    C121  121   0.851   0.491   1.900  0.0000  0.0000  0.0000
    1GR    C122  122   0.993   0.491   1.900  0.0000  0.0000  0.0000
    1GR    C123  123   1.064   0.614   1.900  0.0000  0.0000  0.0000
    1GR    C124  124   1.205   0.614   1.900  0.0000  0.0000  0.0000
    1GR    C125  125   0.851   0.737   1.900  0.0000  0.0000  0.0000
    1GR    C126  126   0.993   0.737   1.900  0.0000  0.0000  0.0000
    1GR    C127  127   1.064   0.860   1.900  0.0000  0.0000  0.0000
    1GR    C128  128   1.205   0.860   1.900  0.0000  0.0000  0.0000
    1GR    C129  129   0.851   0.982   1.900  0.0000  0.0000  0.0000
    1GR    C130  130   0.993   0.982   1.900  0.0000  0.0000  0.0000
    1GR    C131  131   1.064   1.105   1.900  0.0000  0.0000  0.0000
    1GR    C132  132   1.205   1.105   1.900  0.0000  0.0000  0.0000
    1GR    C133  133   0.851   1.228   1.900  0.0000  0.0000  0.0000
    1GR    C134  134   0.993   1.228   1.900  0.0000  0.0000  0.0000
    1GR    C135  135   1.064   1.351   1.900  0.0000  0.0000  0.0000
    1GR    C136  136   1.205   1.351   1.900  0.0000  0.0000  0.0000
    1GR    C137  137   0.851   1.474   1.900  0.0000  0.0000  0.0000
    1GR    C138  138   0.993   1.474   1.900  0.0000  0.0000  0.0000
    1GR    C139  139   1.064   1.596   1.900  0.0000  0.0000  0.0000
    1GR    C140  140   1.205   1.596   1.900  0.0000  0.0000  0.0000
    1GR    C141  141   0.851   1.719   1.900  0.0000  0.0000  0.0000
    1GR    C142  142   0.993   1.719   1.900  0.0000  0.0000  0.0000
    1GR    C143  143   1.064   1.842   1.900  0.0000  0.0000  0.0000
    1GR    C144  144   1.205   1.842   1.900  0.0000  0.0000  0.0000
    1GR    C145  145   0.851   1.965   1.900  0.0000  0.0000  0.0000
    1GR    C146  146   0.993   1.965   1.900  0.0000  0.0000  0.0000
    1GR    C147  147   1.064   2.088   1.900  0.0000  0.0000  0.0000
    1GR    C148  148   1.205   2.088   1.900  0.0000  0.0000  0.0000
    1GR    C149  149   0.851   2.210   1.900  0.0000  0.0000  0.0000
    1GR    C150  150   0.993   2.210   1.900  0.0000  0.0000  0.0000
    1GR    C151  151   1.064   2.333   1.900  0.0000  0.0000  0.0000
    1GR    C152  152   1.205   2.333   1.900  0.0000  0.0000  0.0000
    1GR    C153  153   0.851   2.456   1.900  0.0000  0.0000  0.0000
    1GR    C154  154   0.993   2.456   1.900  0.0000  0.0000  0.0000
    1GR    C155  155   1.064   2.579   1.900  0.0000  0.0000  0.0000
    1GR    C156  156   1.205   2.579   1.900  0.0000  0.0000  0.0000
    1GR    C157  157   0.851   2.702   1.900  0.0000  0.0000  0.0000
    1GR    C158  158   0.993   2.702   1.900  0.0000  0.0000  0.0000
    1GR    C159  159   1.064   2.824   1.900  0.0000  0.0000  0.0000
    1GR    C160  160   1.205   2.824   1.900  0.0000  0.0000  0.0000
    1GR    C161  161   0.851   2.947   1.900  0.0000  0.0000  0.0000
    1GR    C162  162   0.993   2.947   1.900  0.0000  0.0000  0.0000
    1GR    C163  163   1.064   3.070   1.900  0.0000  0.0000  0.0000
    1GR    C164  164   1.205   3.070   1.900  0.0000  0.0000  0.0000
    1GR    C165  165   0.851   3.193   1.900  0.0000  0.0000  0.0000
    1GR    C166  166   0.993   3.193   1.900  0.0000  0.0000  0.0000
    1GR    C167  167   1.064   3.316   1.900  0.0000  0.0000  0.0000
    1GR    C168  168   1.205   3.316   1.900  0.0000  0.0000  0.0000
    1GR    C169  169   1.276   0.000   1.900  0.0000  0.0000  0.0000
    1GR    C170  170   1.418   0.000   1.900  0.0000  0.0000  0.0000
    1GR    C171  171   1.489   0.123   1.900  0.0000  0.0000  0.0000
    1GR    C172  172   1.631   0.123   1.900  0.0000  0.0000  0.0000
    1GR    C173  173   1.276   0.246   1.900  0.0000  0.0000  0.0000
    1GR    C174  174   1.418   0.246   1.900  0.0000  0.0000  0.0000
    1GR    C175  175   1.489   0.368   1.900  0.0000  0.0000  0.0000
    1GR    C176  176   1.631   0.368   1.900  0.0000  0.0000  0.0000
    1GR    C177  177   1.276   0.491   1.900  0.0000  0.0000  0.0000
    1GR    C178  178   1.418   0.491   1.900  0.0000  0.0000  0.0000
    1GR    C179  179   1.489   0.614   1.900  0.0000  0.0000  0.0000
    1GR    C180  180   1.631   0.614   1.900  0.0000  0.0000  0.0000
    1GR    C181  181   1.276   0.737   1.900  0.0000  0.0000  0.0000
    1GR    C182  182   1.418   0.737   1.900  0.0000  0.0000  0.0000
    1GR    C183  183   1.489   0.860   1.900  0.0000  0.0000  0.0000
    1GR    C184  184   1.631   0.860   1.900  0.0000  0.0000  0.0000
    1GR    C185  185   1.276   0.982   1.900  0.0000  0.0000  0.0000
    1GR    C186  186   1.418   0.982   1.900  0.0000  0.0000  0.0000
    1GR    C187  187   1.489   1.105   1.900  0.0000  0.0000  0.0000
    1GR    C188  188   1.631   1.105   1.900  0.0000  0.0000  0.0000
    1GR    C189  189   1.276   1.228   1.900  0.0000  0.0000  0.0000
    1GR    C190  190   1.418   1.228   1.900  0.0000  0.0000  0.0000
    1GR    C191  191   1.489   1.351   1.900  0.0000  0.0000  0.0000
    1GR    C192  192   1.631   1.351   1.900  0.0000  0.0000  0.0000
    1GR    C193  193   1.276   1.474   1.900  0.0000  0.0000  0.0000
    1GR    C194  194   1.418   1.474   1.900  0.0000  0.0000  0.0000
    1GR    C195  195   1.489   1.596   1.900  0.0000  0.0000  0.0000
    1GR    C196  196   1.631   1.596   1.900  0.0000  0.0000  0.0000
    1GR    C197  197   1.276   1.719   1.900  0.0000  0.0000  0.0000
    1GR    C198  198   1.418   1.719   1.900  0.0000  0.0000  0.0000
    1GR    C199  199   1.489   1.842   1.900  0.0000  0.0000  0.0000
    1GR    C200  200   1.631   1.842   1.900  0.0000  0.0000  0.0000
    1GR    C201  201   1.276   1.965   1.900  0.0000  0.0000  0.0000
    1GR    C202  202   1.418   1.965   1.900  0.0000  0.0000  0.0000
    1GR    C203  203   1.489   2.088   1.900  0.0000  0.0000  0.0000
    1GR    C204  204   1.631   2.088   1.900  0.0000  0.0000  0.0000
    1GR    C205  205   1.276   2.210   1.900  0.0000  0.0000  0.0000
    1GR    C206  206   1.418   2.210   1.900  0.0000  0.0000  0.0000
    1GR    C207  207   1.489   2.333   1.900  0.0000  0.0000  0.0000
    1GR    C208  208   1.631   2.333   1.900  0.0000  0.0000  0.0000
    1GR    C209  209   1.276   2.456   1.900  0.0000  0.0000  0.0000
    1GR    C210  210   1.418   2.456   1.900  0.0000  0.0000  0.0000
    1GR    C211  211   1.489   2.579   1.900  0.0000  0.0000  0.0000
    1GR    C212  212   1.631   2.579   1.900  0.0000  0.0000  0.0000
    1GR    C213  213   1.276   2.702   1.900  0.0000  0.0000  0.0000
    1GR    C214  214   1.418   2.702   1.900  0.0000  0.0000  0.0000
    1GR    C215  215   1.489   2.824   1.900  0.0000  0.0000  0.0000
    1GR    C216  216   1.631   2.824   1.900  0.0000  0.0000  0.0000
    1GR    C217  217   1.276   2.947   1.900  0.0000  0.0000  0.0000
    1GR    C218  218   1.418   2.947   1.900  0.0000  0.0000  0.0000
    1GR    C219  219   1.489   3.070   1.900  0.0000  0.0000  0.0000
    1GR    C220  220   1.631   3.070   1.900  0.0000  0.0000  0.0000
    1GR    C221  221   1.276   3.193   1.900  0.0000  0.0000  0.0000
    1GR    C222  222   1.418   3.193   1.900  0.0000  0.0000  0.0000
    1GR    C223  223   1.489   3.316   1.900  0.0000  0.0000  0.0000
    1GR    C224  224   1.631   3.316   1.900  0.0000  0.0000  0.0000
    1GR    C225  225   1.702   0.000   1.900  0.0000  0.0000  0.0000
    1GR    C226  226   1.843   0.000   1.900  0.0000  0.0000  0.0000
    1GR    C227  227   1.914   0.123   1.900  0.0000  0.0000  0.0000
    1GR    C228  228   2.056   0.123   1.900  0.0000  0.0000  0.0000
    1GR    C229  229   1.702   0.246   1.900  0.0000  0.0000  0.0000
    1GR    C230  230   1.843   0.246   1.900  0.0000  0.0000  0.0000
    1GR    C231  231   1.914   0.368   1.900  0.0000  0.0000  0.0000
    1GR    C232  232   2.056   0.368   1.900  0.0000  0.0000  0.0000
    1GR    C233  233   1.702   0.491   1.900  0.0000  0.0000  0.0000
    1GR    C234  234   1.843   0.491   1.900  0.0000  0.0000  0.0000
    1GR    C235  235   1.914   0.614   1.900  0.0000  0.0000  0.0000
    1GR    C236  236   2.056   0.614   1.900  0.0000  0.0000  0.0000
    1GR    C237  237   1.702   0.737   1.900  0.0000  0.0000  0.0000
    1GR    C238  238   1.843   0.737   1.900  0.0000  0.0000  0.0000
    1GR    C239  239   1.914   0.860   1.900  0.0000  0.0000  0.0000
    1GR    C240  240   2.056   0.860   1.900  0.0000  0.0000  0.0000
    1GR    C241  241   1.702   0.982   1.900  0.0000  0.0000  0.0000
    1GR    C242  242   1.843   0.982   1.900  0.0000  0.0000  0.0000
    1GR    C243  243   1.914   1.105   1.900  0.0000  0.0000  0.0000
    1GR    C244  244   2.056   1.105   1.900  0.0000  0.0000  0.0000
    1GR    C245  245   1.702   1.228   1.900  0.0000  0.0000  0.0000
    1GR    C246  246   1.843   1.228   1.900  0.0000  0.0000  0.0000
    1GR    C247  247   1.914   1.351   1.900  0.0000  0.0000  0.0000
    1GR    C248  248   2.056   1.351   1.900  0.0000  0.0000  0.0000
    1GR    C249  249   1.702   1.474   1.900  0.0000  0.0000  0.0000
    1GR    C250  250   1.843   1.474   1.900  0.0000  0.0000  0.0000
    1GR    C251  251   1.914   1.596   1.900  0.0000  0.0000  0.0000
    1GR    C252  252   2.056   1.596   1.900  0.0000  0.0000  0.0000
    1GR    C253  253   1.702   1.719   1.900  0.0000  0.0000  0.0000
    1GR    C254  254   1.843   1.719   1.900  0.0000  0.0000  0.0000
    1GR    C255  255   1.914   1.842   1.900  0.0000  0.0000  0.0000
    1GR    C256  256   2.056   1.842   1.900  0.0000  0.0000  0.0000
    1GR    C257  257   1.702   1.965   1.900  0.0000  0.0000  0.0000
    1GR    C258  258   1.843   1.965   1.900  0.0000  0.0000  0.0000
    1GR    C259  259   1.914   2.088   1.900  0.0000  0.0000  0.0000
    1GR    C260  260   2.056   2.088   1.900  0.0000  0.0000  0.0000
    1GR    C261  261   1.702   2.210   1.900  0.0000  0.0000  0.0000
    1GR    C262  262   1.843   2.210   1.900  0.0000  0.0000  0.0000
    1GR    C263  263   1.914   2.333   1.900  0.0000  0.0000  0.0000
    1GR    C264  264   2.056   2.333   1.900  0.0000  0.0000  0.0000
    1GR    C265  265   1.702   2.456   1.900  0.0000  0.0000  0.0000
    1GR    C266  266   1.843   2.456   1.900  0.0000  0.0000  0.0000
    1GR    C267  267   1.914   2.579   1.900  0.0000  0.0000  0.0000
    1GR    C268  268   2.056   2.579   1.900  0.0000  0.0000  0.0000
    1GR    C269  269   1.702   2.702   1.900  0.0000  0.0000  0.0000
    1GR    C270  270   1.843   2.702   1.900  0.0000  0.0000  0.0000
    1GR    C271  271   1.914   2.824   1.900  0.0000  0.0000  0.0000
    1GR    C272  272   2.056   2.824   1.900  0.0000  0.0000  0.0000
    1GR    C273  273   1.702   2.947   1.900  0.0000  0.0000  0.0000
    1GR    C274  274   1.843   2.947   1.900  0.0000  0.0000  0.0000
    1GR    C275  275   1.914   3.070   1.900  0.0000  0.0000  0.0000
    1GR    C276  276   2.056   3.070   1.900  0.0000  0.0000  0.0000
    1GR    C277  277   1.702   3.193   1.900  0.0000  0.0000  0.0000
    1GR    C278  278   1.843   3.193   1.900  0.0000  0.0000  0.0000
    1GR    C279  279   1.914   3.316   1.900  0.0000  0.0000  0.0000
    1GR    C280  280   2.056   3.316   1.900  0.0000  0.0000  0.0000
    1GR    C281  281   2.127   0.000   1.900  0.0000  0.0000  0.0000
    1GR    C282  282   2.269   0.000   1.900  0.0000  0.0000  0.0000
    1GR    C283  283   2.340   0.123   1.900  0.0000  0.0000  0.0000
    1GR    C284  284   2.481   0.123   1.900  0.0000  0.0000  0.0000
    1GR    C285  285   2.127   0.246   1.900  0.0000  0.0000  0.0000
    1GR    C286  286   2.269   0.246   1.900  0.0000  0.0000  0.0000
    1GR    C287  287   2.340   0.368   1.900  0.0000  0.0000  0.0000
    1GR    C288  288   2.481   0.368   1.900  0.0000  0.0000  0.0000
    1GR    C289  289   2.127   0.491   1.900  0.0000  0.0000  0.0000
    1GR    C290  290   2.269   0.491   1.900  0.0000  0.0000  0.0000
    1GR    C291  291   2.340   0.614   1.900  0.0000  0.0000  0.0000
    1GR    C292  292   2.481   0.614   1.900  0.0000  0.0000  0.0000
    1GR    C293  293   2.127   0.737   1.900  0.0000  0.0000  0.0000
    1GR    C294  294   2.269   0.737   1.900  0.0000  0.0000  0.0000
    1GR    C295  295   2.340   0.860   1.900  0.0000  0.0000  0.0000
    1GR    C296  296   2.481   0.860   1.900  0.0000  0.0000  0.0000
    1GR    C297  297   2.127   0.982   1.900  0.0000  0.0000  0.0000
    1GR    C298  298   2.269   0.982   1.900  0.0000  0.0000  0.0000
    1GR    C299  299   2.340   1.105   1.900  0.0000  0.0000  0.0000
    1GR    C300  300   2.481   1.105   1.900  0.0000  0.0000  0.0000
    1GR    C301  301   2.127   1.228   1.900  0.0000  0.0000  0.0000
    1GR    C302  302   2.269   1.228   1.900  0.0000  0.0000  0.0000
    1GR    C303  303   2.340   1.351   1.900  0.0000  0.0000  0.0000
    1GR    C304  304   2.481   1.351   1.900  0.0000  0.0000  0.0000
    1GR    C305  305   2.127   1.474   1.900  0.0000  0.0000  0.0000
    1GR    C306  306   2.269   1.474   1.900  0.0000  0.0000  0.0000
    1GR    C307  307   2.340   1.596   1.900  0.0000  0.0000  0.0000
    1GR    C308  308   2.481   1.596   1.900  0.0000  0.0000  0.0000
    1GR    C309  309   2.127   1.719   1.900  0.0000  0.0000  0.0000
    1GR    C310  310   2.269   1.719   1.900  0.0000  0.0000  0.0000
    1GR    C311  311   2.340   1.842   1.900  0.0000  0.0000  0.0000
    1GR    C312  312   2.481   1.842   1.900  0.0000  0.0000  0.0000
    1GR    C313  313   2.127   1.965   1.900  0.0000  0.0000  0.0000
    1GR    C314  314   2.269   1.965   1.900  0.0000  0.0000  0.0000
    1GR    C315  315   2.340   2.088   1.900  0.0000  0.0000  0.0000
    1GR    C316  316   2.481   2.088   1.900  0.0000  0.0000  0.0000
    1GR    C317  317   2.127   2.210   1.900  0.0000  0.0000  0.0000
    1GR    C318  318   2.269   2.210   1.900  0.0000  0.0000  0.0000
    1GR    C319  319   2.340   2.333   1.900  0.0000  0.0000  0.0000
    1GR    C320  320   2.481   2.333   1.900  0.0000  0.0000  0.0000
    1GR    C321  321   2.127   2.456   1.900  0.0000  0.0000  0.0000
    1GR    C322  322   2.269   2.456   1.900  0.0000  0.0000  0.0000
    1GR    C323  323   2.340   2.579   1.900  0.0000  0.0000  0.0000
    1GR    C324  324   2.481   2.579   1.900  0.0000  0.0000  0.0000
    1GR    C325  325   2.127   2.702   1.900  0.0000  0.0000  0.0000
    1GR    C326  326   2.269   2.702   1.900  0.0000  0.0000  0.0000
    1GR    C327  327   2.340   2.824   1.900  0.0000  0.0000  0.0000
    1GR    C328  328   2.481   2.824   1.900  0.0000  0.0000  0.0000
    1GR    C329  329   2.127   2.947   1.900  0.0000  0.0000  0.0000
    1GR    C330  330   2.269   2.947   1.900  0.0000  0.0000  0.0000
    1GR    C331  331   2.340   3.070   1.900  0.0000  0.0000  0.0000
    1GR    C332  332   2.481   3.070   1.900  0.0000  0.0000  0.0000
    1GR    C333  333   2.127   3.193   1.900  0.0000  0.0000  0.0000
    1GR    C334  334   2.269   3.193   1.900  0.0000  0.0000  0.0000
    1GR    C335  335   2.340   3.316   1.900  0.0000  0.0000  0.0000
    1GR    C336  336   2.481   3.316   1.900  0.0000  0.0000  0.0000
    1GR    C337  337   2.552   0.000   1.900  0.0000  0.0000  0.0000
    1GR    C338  338   2.694   0.000   1.900  0.0000  0.0000  0.0000
    1GR    C339  339   2.765   0.123   1.900  0.0000  0.0000  0.0000
    1GR    C340  340   2.907   0.123   1.900  0.0000  0.0000  0.0000
    1GR    C341  341   2.552   0.246   1.900  0.0000  0.0000  0.0000
    1GR    C342  342   2.694   0.246   1.900  0.0000  0.0000  0.0000
    1GR    C343  343   2.765   0.368   1.900  0.0000  0.0000  0.0000
    1GR    C344  344   2.907   0.368   1.900  0.0000  0.0000  0.0000
    1GR    C345  345   2.552   0.491   1.900  0.0000  0.0000  0.0000
    1GR    C346  346   2.694   0.491   1.900  0.0000  0.0000  0.0000
    1GR    C347  347   2.765   0.614   1.900  0.0000  0.0000  0.0000
    1GR    C348  348   2.907   0.614   1.900  0.0000  0.0000  0.0000
    1GR    C349  349   2.552   0.737   1.900  0.0000  0.0000  0.0000
    1GR    C350  350   2.694   0.737   1.900  0.0000  0.0000  0.0000
    1GR    C351  351   2.765   0.860   1.900  0.0000  0.0000  0.0000
    1GR    C352  352   2.907   0.860   1.900  0.0000  0.0000  0.0000
    1GR    C353  353   2.552   0.982   1.900  0.0000  0.0000  0.0000
    1GR    C354  354   2.694   0.982   1.900  0.0000  0.0000  0.0000
    1GR    C355  355   2.765   1.105   1.900  0.0000  0.0000  0.0000
    1GR    C356  356   2.907   1.105   1.900  0.0000  0.0000  0.0000
    1GR    C357  357   2.552   1.228   1.900  0.0000  0.0000  0.0000
    1GR    C358  358   2.694   1.228   1.900  0.0000  0.0000  0.0000
    1GR    C359  359   2.765   1.351   1.900  0.0000  0.0000  0.0000
    1GR    C360  360   2.907   1.351   1.900  0.0000  0.0000  0.0000
    1GR    C361  361   2.552   1.474   1.900  0.0000  0.0000  0.0000
    1GR    C362  362   2.694   1.474   1.900  0.0000  0.0000  0.0000
    1GR    C363  363   2.765   1.596   1.900  0.0000  0.0000  0.0000
    1GR    C364  364   2.907   1.596   1.900  0.0000  0.0000  0.0000
    1GR    C365  365   2.552   1.719   1.900  0.0000  0.0000  0.0000
    1GR    C366  366   2.694   1.719   1.900  0.0000  0.0000  0.0000
    1GR    C367  367   2.765   1.842   1.900  0.0000  0.0000  0.0000
    1GR    C368  368   2.907   1.842   1.900  0.0000  0.0000  0.0000
    1GR    C369  369   2.552   1.965   1.900  0.0000  0.0000  0.0000
    1GR    C370  370   2.694   1.965   1.900  0.0000  0.0000  0.0000
    1GR    C371  371   2.765   2.088   1.900  0.0000  0.0000  0.0000
    1GR    C372  372   2.907   2.088   1.900  0.0000  0.0000  0.0000
    1GR    C373  373   2.552   2.210   1.900  0.0000  0.0000  0.0000
    1GR    C374  374   2.694   2.210   1.900  0.0000  0.0000  0.0000
    1GR    C375  375   2.765   2.333   1.900  0.0000  0.0000  0.0000
    1GR    C376  376   2.907   2.333   1.900  0.0000  0.0000  0.0000
    1GR    C377  377   2.552   2.456   1.900  0.0000  0.0000  0.0000
    1GR    C378  378   2.694   2.456   1.900  0.0000  0.0000  0.0000
    1GR    C379  379   2.765   2.579   1.900  0.0000  0.0000  0.0000
    1GR    C380  380   2.907   2.579   1.900  0.0000  0.0000  0.0000
    1GR    C381  381   2.552   2.702   1.900  0.0000  0.0000  0.0000
    1GR    C382  382   2.694   2.702   1.900  0.0000  0.0000  0.0000
    1GR    C383  383   2.765   2.824   1.900  0.0000  0.0000  0.0000
    1GR    C384  384   2.907   2.824   1.900  0.0000  0.0000  0.0000
    1GR    C385  385   2.552   2.947   1.900  0.0000  0.0000  0.0000
    1GR    C386  386   2.694   2.947   1.900  0.0000  0.0000  0.0000
    1GR    C387  387   2.765   3.070   1.900  0.0000  0.0000  0.0000
    1GR    C388  388   2.907   3.070   1.900  0.0000  0.0000  0.0000
    1GR    C389  389   2.552   3.193   1.900  0.0000  0.0000  0.0000
    1GR    C390  390   2.694   3.193   1.900  0.0000  0.0000  0.0000
    1GR    C391  391   2.765   3.316   1.900  0.0000  0.0000  0.0000
    1GR    C392  392   2.907   3.316   1.900  0.0000  0.0000  0.0000
    1GR    C393  393   2.978   0.000   1.900  0.0000  0.0000  0.0000
    1GR    C394  394   3.120   0.000   1.900  0.0000  0.0000  0.0000
    1GR    C395  395   3.191   0.123   1.900  0.0000  0.0000  0.0000
    1GR    C396  396   3.332   0.123   1.900  0.0000  0.0000  0.0000
    1GR    C397  397   2.978   0.246   1.900  0.0000  0.0000  0.0000
    1GR    C398  398   3.120   0.246   1.900  0.0000  0.0000  0.0000
    1GR    C399  399   3.191   0.368   1.900  0.0000  0.0000  0.0000
    1GR    C400  400   3.332   0.368   1.900  0.0000  0.0000  0.0000
    1GR    C401  401   2.978   0.491   1.900  0.0000  0.0000  0.0000
    1GR    C402  402   3.120   0.491   1.900  0.0000  0.0000  0.0000
    1GR    C403  403   3.191   0.614   1.900  0.0000  0.0000  0.0000
    1GR    C404  404   3.332   0.614   1.900  0.0000  0.0000  0.0000
    1GR    C405  405   2.978   0.737   1.900  0.0000  0.0000  0.0000
    1GR    C406  406   3.120   0.737   1.900  0.0000  0.0000  0.0000
    1GR    C407  407   3.191   0.860   1.900  0.0000  0.0000  0.0000
    1GR    C408  408   3.332   0.860   1.900  0.0000  0.0000  0.0000
    1GR    C409  409   2.978   0.982   1.900  0.0000  0.0000  0.0000
    1GR    C410  410   3.120   0.982   1.900  0.0000  0.0000  0.0000
    1GR    C411  411   3.191   1.105   1.900  0.0000  0.0000  0.0000
    1GR    C412  412   3.332   1.105   1.900  0.0000  0.0000  0.0000
    1GR    C413  413   2.978   1.228   1.900  0.0000  0.0000  0.0000
    1GR    C414  414   3.120   1.228   1.900  0.0000  0.0000  0.0000
    1GR    C415  415   3.191   1.351   1.900  0.0000  0.0000  0.0000
    1GR    C416  416   3.332   1.351   1.900  0.0000  0.0000  0.0000
    1GR    C417  417   2.978   1.474   1.900  0.0000  0.0000  0.0000
    1GR    C418  418   3.120   1.474   1.900  0.0000  0.0000  0.0000
    1GR    C419  419   3.191   1.596   1.900  0.0000  0.0000  0.0000
    1GR    C420  420   3.332   1.596   1.900  0.0000  0.0000  0.0000
    1GR    C421  421   2.978   1.719   1.900  0.0000  0.0000  0.0000
    1GR    C422  422   3.120   1.719   1.900  0.0000  0.0000  0.0000
    1GR    C423  423   3.191   1.842   1.900  0.0000  0.0000  0.0000
    1GR    C424  424   3.332   1.842   1.900  0.0000  0.0000  0.0000
    1GR    C425  425   2.978   1.965   1.900  0.0000  0.0000  0.0000
    1GR    C426  426   3.120   1.965   1.900  0.0000  0.0000  0.0000
    1GR    C427  427   3.191   2.088   1.900  0.0000  0.0000  0.0000
    1GR    C428  428   3.332   2.088   1.900  0.0000  0.0000  0.0000
    1GR    C429  429   2.978   2.210   1.900  0.0000  0.0000  0.0000
    1GR    C430  430   3.120   2.210   1.900  0.0000  0.0000  0.0000
    1GR    C431  431   3.191   2.333   1.900  0.0000  0.0000  0.0000
    1GR    C432  432   3.332   2.333   1.900  0.0000  0.0000  0.0000
    1GR    C433  433   2.978   2.456   1.900  0.0000  0.0000  0.0000
    1GR    C434  434   3.120   2.456   1.900  0.0000  0.0000  0.0000
    1GR    C435  435   3.191   2.579   1.900  0.0000  0.0000  0.0000
    1GR    C436  436   3.332   2.579   1.900  0.0000  0.0000  0.0000
    1GR    C437  437   2.978   2.702   1.900  0.0000  0.0000  0.0000
    1GR    C438  438   3.120   2.702   1.900  0.0000  0.0000  0.0000
    1GR    C439  439   3.191   2.824   1.900  0.0000  0.0000  0.0000
    1GR    C440  440   3.332   2.824   1.900  0.0000  0.0000  0.0000
    1GR    C441  441   2.978   2.947   1.900  0.0000  0.0000  0.0000
    1GR    C442  442   3.120   2.947   1.900  0.0000  0.0000  0.0000
    1GR    C443  443   3.191   3.070   1.900  0.0000  0.0000  0.0000
    1GR    C444  444   3.332   3.070   1.900  0.0000  0.0000  0.0000
    1GR    C445  445   2.978   3.193   1.900  0.0000  0.0000  0.0000
    1GR    C446  446   3.120   3.193   1.900  0.0000  0.0000  0.0000
    1GR    C447  447   3.191   3.316   1.900  0.0000  0.0000  0.0000
    1GR    C448  448   3.332   3.316   1.900  0.0000  0.0000  0.0000
    2PMMA   CX1  449   3.192   3.249   2.830 -0.4853 -0.7911 -0.6153
    2PMMA   CA2  450   3.250   3.318   2.961 -0.1853  0.1331 -0.2267
    2PMMA   CX3  451   3.149   3.289   3.075  0.5674 -0.3989 -0.6554
    2PMMA    C4  452   3.384   3.255   2.989  0.6453  0.0945 -0.0107
    2PMMA    O5  453   3.411   3.178   3.080  0.3823  0.1386 -0.3187
    2PMMA   OS6  454   3.484   3.304   2.919 -0.1110  0.1461  0.6347
    2PMMA   CE7  455   3.618   3.261   2.948 -0.1457  0.0386  0.0619
    2PMMA   CX8  456   3.242   3.469   2.938 -0.7631  0.1455 -0.1248
    2PMMA   CA9  457   3.286   3.586   3.035 -0.0553 -0.0520 -0.0320
    2PMMA  CX10  458   3.190   3.622   3.156 -0.2736 -0.3958 -0.5773
    2PMMA   C11  459   3.290   3.712   2.945 -0.1812 -0.1957 -0.0141
    2PMMA   O12  460   3.214   3.804   2.946  0.2894 -0.1412  0.3507
    2PMMA  OS13  461   3.398   3.714   2.861 -0.7774  0.4660  0.9051
    2PMMA  CE14  462   3.420   3.818   2.758 -0.0554 -0.9053  0.3830
    2PMMA  CX15  463   3.430   3.558   3.093  0.5535 -0.5676 -0.4135
    2PMMA  CA16  464   3.515   3.646   3.191 -0.0427 -0.4239  0.1494
    2PMMA  CX17  465   3.659   3.583   3.176  0.0552  0.1236  0.1915
    2PMMA   C18  466   3.512   3.790   3.136  0.0569  0.6933 -0.1759
    2PMMA   O19  467   3.606   3.839   3.080  0.7786  0.2468 -0.2742
    2PMMA  OS20  468   3.419   3.867   3.199  0.0892  0.2568 -0.1279
    2PMMA  CE21  469   3.418   4.007   3.183  0.2755 -0.3228 -0.3756
    2PMMA  CX22  470   3.466   3.625   3.340 -0.7078  0.2043 -0.4313
    2PMMA  CA23  471   3.556   3.680   3.457 -0.0339  0.2445  0.4010
    2PMMA  CX24  472   3.610   3.832   3.447 -0.3121 -0.1221  0.5165
    2PMMA   C25  473   3.665   3.581   3.489 -0.1528 -0.1437 -0.5160
    2PMMA   O26  474   3.654   3.486   3.565  0.0204 -0.6344  0.3312
    2PMMA  OS27  475   3.793   3.623   3.450 -0.1760 -0.0615  0.1854
    2PMMA  CE28  476   3.919   3.561   3.482  0.0037 -0.1388 -0.6777
    2PMMA  CX29  477   3.463   3.688   3.582 -0.2464  0.1310  0.4485
    2PMMA  HC30  478   3.167   3.145   2.854 -0.1122 -0.9134 -0.7678
    2PMMA  HC31  479   3.097   3.288   2.790 -1.2600  1.0889  2.8342
    2PMMA  HC32  480   3.257   3.256   2.743 -1.7748 -2.0160 -1.7152
    2PMMA  HC33  481   3.050   3.330   3.053  1.4806  1.5133 -1.2797
    2PMMA  HC34  482   3.182   3.341   3.166  1.9719  0.6000 -1.7209
    2PMMA  HC35  483   3.139   3.182   3.096  0.5385 -0.4299 -0.8336
    2PMMA  H136  484   3.692   3.320   2.894 -0.0383 -0.8040 -0.7271
    2PMMA  H137  485   3.621   3.159   2.910 -1.4952  0.4855 -1.2878
    2PMMA  H138  486   3.645   3.269   3.054 -3.2950  1.4428  0.8079
    2PMMA  HC39  487   3.305   3.483   2.850  1.4411  0.3291  1.4656
    2PMMA  HC40  488   3.141   3.493   2.903 -0.0791 -0.2666 -2.4425
    2PMMA  HC41  489   3.201   3.717   3.209 -1.8485 -0.5674  0.0697
    2PMMA  HC42  490   3.088   3.627   3.118 -0.2314 -0.7682 -0.7398
    2PMMA  HC43  491   3.179   3.545   3.234 -1.1480  0.9124  0.6252
    2PMMA  H144  492   3.327   3.843   2.706 -0.1497  0.3834  1.1520
    2PMMA  H145  493   3.478   3.775   2.676 -1.7098 -1.1664 -0.6864
    2PMMA  H146  494   3.464   3.910   2.797  0.3727 -2.2627  3.2520
    2PMMA  HC47  495   3.441   3.455   3.128 -0.0787 -0.4870  0.0353
    2PMMA  HC48  496   3.490   3.544   3.003  1.0319  0.8299 -0.3241
    2PMMA  HC49  497   3.743   3.646   3.208 -1.5697  1.4760  1.9103
    2PMMA  HC50  498   3.687   3.569   3.072 -0.6490 -0.1122  0.0293
    2PMMA  HC51  499   3.667   3.492   3.237 -0.1048 -0.9815 -1.4112
    2PMMA  H152  500   3.451   4.024   3.080 -0.3226  0.5995 -0.4213
    2PMMA  H153  501   3.481   4.046   3.263  0.6081  0.8678 -1.1989
    2PMMA  H154  502   3.317   4.048   3.189  0.7611  0.6219  1.4709
    2PMMA  HC55  503   3.370   3.677   3.343 -1.0829 -0.5310  1.0326
    2PMMA  HC56  504   3.449   3.521   3.370  0.2901  0.0901 -0.2277
    2PMMA  HC57  505   3.534   3.908   3.427  0.4379  0.5701  0.2612
    2PMMA  HC58  506   3.665   3.864   3.536 -0.3024  1.5848 -0.0983
    2PMMA  HC59  507   3.688   3.846   3.371 -0.0728 -0.8819  0.6135
    2PMMA  H160  508   4.002   3.616   3.437 -0.7059  1.8260  0.3319
    2PMMA  H161  509   3.907   3.458   3.449  1.4711 -0.5660  0.0905
    2PMMA  H162  510   3.931   3.545   3.589  2.1686  2.8683 -0.3910
    2PMMA  HC63  511   3.398   3.776   3.582  0.7577  0.8872 -0.4863
    2PMMA  HC64  512   3.396   3.601   3.588 -1.4461  1.0257  0.1357
    2PMMA  HC65  513   3.517   3.692   3.677  1.3525 -0.2192 -0.4352
    3HFI     O1  514   3.185   2.934   3.365  0.7369  0.0512 -0.4369
    3HFI     C1  515   3.140   2.797   3.422 -0.2827 -0.4649  0.9505
    3HFI     C2  516   3.002   2.800   3.505  1.2009  0.5424 -0.3070
    3HFI     F1  517   3.008   2.902   3.595 -0.2178 -0.1338 -0.7585
    3HFI     F2  518   2.977   2.689   3.574  0.5550  0.4886  0.7481
    3HFI     F3  519   2.897   2.820   3.421  0.6261  0.0911  0.3147
    3HFI     C3  520   3.253   2.736   3.505 -0.0580  0.8535 -0.2938
    3HFI     F4  521   3.298   2.820   3.604 -0.2913 -0.1282 -0.3623
    3HFI     F5  522   3.357   2.716   3.426  0.2005 -0.0053  0.5241
    3HFI     F6  523   3.236   2.616   3.551 -0.1702  0.0343  0.1435
    3HFI     H1  524   3.276   2.926   3.333  0.9058  0.1776  0.0060
    3HFI     H2  525   3.125   2.735   3.334 -0.0626 -0.1674  0.6993
    4HFI     O1  526   3.138   0.621   2.967  0.4798 -0.2396 -0.0018
    4HFI     C1  527   3.009   0.644   2.905  0.2503 -0.6877 -0.1718
    4HFI     C2  528   2.898   0.608   3.006 -0.2695  0.3125 -0.3561
    4HFI     F1  529   2.855   0.482   3.019  0.1317  0.0054  0.6907
    4HFI     F2  530   2.789   0.680   2.976  0.1127 -0.0128  0.1352
    4HFI     F3  531   2.930   0.639   3.134 -0.0725  0.5123 -0.7471
    4HFI     C3  532   2.990   0.592   2.760 -0.8295  0.1721 -0.3650
    4HFI     F4  533   2.876   0.645   2.706  0.1708 -0.2982 -0.7870
    4HFI     F5  534   2.988   0.466   2.756 -0.2054  0.2127  0.3037
    4HFI     F6  535   3.098   0.635   2.683  0.1561  0.0890 -0.0874
    4HFI     H1  536   3.157   0.526   2.957 -0.0089 -0.6088  2.2893
    4HFI     H2  537   2.999   0.752   2.886 -2.1507 -0.8216  0.1228
    5HFI     O1  538   0.975   2.710   0.454 -0.2826  0.1180 -0.2616
    5HFI     C1  539   1.087   2.621   0.437 -0.4729 -0.1620  0.2198
    5HFI     C2  540   1.224   2.684   0.472 -0.5785 -0.1578  0.3377
    5HFI     F1  541   1.219   2.804   0.418 -0.0308  0.0341  0.3614
    5HFI     F2  542   1.335   2.606   0.443  0.1472 -0.5190 -0.2107
    5HFI     F3  543   1.229   2.702   0.602  0.5179  0.5342 -0.4011
    5HFI     C3  544   1.092   2.553   0.294  0.3518  0.3878  0.4333
    5HFI     F4  545   1.152   2.635   0.199  0.1363 -0.1207  0.2008
    5HFI     F5  546   0.968   2.520   0.243 -0.1617  0.3780 -0.5839
    5HFI     F6  547   1.168   2.445   0.293  0.0376 -0.9193 -0.6457
    5HFI     H1  548   0.986   2.802   0.426  2.7825 -0.5839 -1.6112
    5HFI     H2  549   1.071   2.537   0.505 -1.2134 -1.5694 -1.6652
    6HFI     O1  550   3.298   1.025   1.288  0.4223  0.0263  0.1837
    6HFI     C1  551   3.307   1.117   1.402 -0.0746  0.5566  0.4906
    6HFI     C2  552   3.430   1.079   1.497 -0.1230 -0.2235  0.0422
    6HFI     F1  553   3.533   1.057   1.420 -0.1597  0.0423  0.1809
    6HFI     F2  554   3.408   0.974   1.574 -0.1177 -0.5767  0.6919
    6HFI     F3  555   3.457   1.194   1.571 -0.5765  0.3727  0.7835
    6HFI     C3  556   3.170   1.120   1.481  0.4984 -0.0130 -0.1137
    6HFI     F4  557   3.178   1.214   1.578 -0.2468 -0.5943 -0.0287
    6HFI     F5  558   3.151   0.998   1.539  0.0343  0.1119 -0.2552
    6HFI     F6  559   3.064   1.136   1.402  0.1580 -0.3001  0.1000
    6HFI     H1  560   3.234   0.955   1.308 -1.5164  1.4673 -0.9121
    6HFI     H2  561   3.333   1.215   1.361 -0.1318 -0.5077 -2.2307
    7HFI     O1  562   0.133   0.457   0.724 -0.6906 -0.0652  0.1823
    7HFI     C1  563   0.038   0.565   0.767 -0.1437 -0.2941  0.2774
    7HFI     C2  564   0.095   0.656   0.884 -0.2230  0.3483 -0.5431
    7HFI     F1  565   0.101   0.590   1.006 -0.2954  0.0571  0.1547
    7HFI     F2  566   0.021   0.770   0.899 -0.2345  0.4383  0.2705
    7HFI     F3  567   0.218   0.694   0.850 -0.3010  0.1390  0.3678
    7HFI     C3  568  -0.100   0.508   0.799  0.5760  0.3536 -0.3932
    7HFI     F4  569  -0.143   0.434   0.692 -0.5147  0.5538 -0.1533
    7HFI     F5  570  -0.187   0.611   0.828  0.3253  0.6489  0.2670
    7HFI     F6  571  -0.092   0.426   0.913  0.1904  0.5223 -0.3018
    7HFI     H1  572   0.128   0.387   0.792  0.0674 -0.0102  0.2943
    7HFI     H2  573   0.029   0.627   0.677 -0.9497  0.7090  1.0448
    8HFI     O1  574   1.687   3.193   1.557  0.4432  0.1458  0.4518
    8HFI     C1  575   1.569   3.254   1.503  0.0080 -0.2120  0.3790
    8HFI     C2  576   1.467   3.149   1.457  0.5657  0.2907 -0.2575
    8HFI     F1  577   1.432   3.076   1.565  0.2030  0.1268  0.2529
    8HFI     F2  578   1.530   3.058   1.374 -0.5260  0.1640 -0.2074
    8HFI     F3  579   1.356   3.184   1.398  0.1296  0.0206  0.0062
    8HFI     C3  580   1.617   3.358   1.394  0.2426  0.4113 -1.0067
    8HFI     F4  581   1.676   3.298   1.287  0.0747 -0.4923 -0.0556
    8HFI     F5  582   1.699   3.451   1.445  0.3339  0.0418  0.3375
    8HFI     F6  583   1.510   3.424   1.348  0.3115 -0.0087  0.6258
    8HFI     H1  584   1.716   3.119   1.500  0.9261 -0.4997  1.5289
    8HFI     H2  585   1.532   3.320   1.582  1.2428  2.1927 -0.9956
    9HFI     O1  586   0.475   1.541   1.517  0.6830 -0.5337  0.3265
    9HFI     C1  587   0.336   1.516   1.528  0.7384 -0.4622  0.0092
    9HFI     C2  588   0.297   1.405   1.426  0.2781  0.3098 -0.8388
    9HFI     F1  589   0.168   1.413   1.392  0.4160  0.0111  0.3952
    9HFI     F2  590   0.317   1.284   1.480  0.0152  0.4720  0.5106
    9HFI     F3  591   0.370   1.398   1.310  0.3361 -0.0025  0.1282
    9HFI     C3  592   0.249   1.650   1.514  0.3022  0.3461  0.7064
    9HFI     F4  593   0.245   1.700   1.387 -0.2461  0.9111  0.1865
    9HFI     F5  594   0.300   1.749   1.585 -0.4465 -0.2605  0.1150
    9HFI     F6  595   0.117   1.635   1.553 -0.1095 -0.2524 -0.1028
    9HFI     H1  596   0.510   1.480   1.450 -1.2491 -2.3745  0.9315
    9HFI     H2  597   0.315   1.488   1.632 -2.8751 -1.0869 -0.8189
   10HFI     O1  598   1.463   0.847   1.303 -0.8994  0.0186 -0.6187
   10HFI     C1  599   1.474   0.967   1.393  0.0558  0.1224  0.1299
   10HFI     C2  600   1.595   0.969   1.482 -0.3511 -0.0446 -0.2844
   10HFI     F1  601   1.603   0.852   1.553 -0.1619 -0.7347  0.3417
   10HFI     F2  602   1.602   1.073   1.567 -0.1257 -0.1437 -0.2311
   10HFI     F3  603   1.703   0.977   1.407  0.4687 -0.0911  0.0661
   10HFI     C3  604   1.347   0.975   1.484 -0.4820  0.7592  0.5102
   10HFI     F4  605   1.244   0.978   1.408  0.1817  0.2038 -0.2871
   10HFI     F5  606   1.340   1.083   1.562 -0.1254  0.3228 -0.0675
   10HFI     F6  607   1.332   0.861   1.558  0.2511 -0.3576  0.9780
   10HFI     H1  608   1.551   0.810   1.284 -0.7848 -0.0825  0.0962
   10HFI     H2  609   1.474   1.063   1.340  0.6925  0.9232  1.5464
   11HFI     O1  610   3.094   2.602   0.220  0.1930  0.0011  0.2231
   11HFI     C1  611   3.104   2.741   0.262  0.1098  0.2421  0.6209
   11HFI     C2  612   3.010   2.779   0.384  0.3996  0.2229 -0.2305
   11HFI     F1  613   3.028   2.901   0.441 -0.0602 -0.1112 -0.2298
   11HFI     F2  614   3.036   2.686   0.483  0.3867  0.1153 -0.5203
   11HFI     F3  615   2.876   2.763   0.345  0.0018 -0.6386  0.1572
   11HFI     C3  616   3.092   2.837   0.144 -0.5240 -0.4933  0.0900
   11HFI     F4  617   3.025   2.770   0.039 -0.5804  0.0513 -0.3665
   11HFI     F5  618   3.219   2.869   0.099 -0.2946  0.5589  0.2233
   11HFI     F6  619   3.028   2.953   0.174  0.1944 -0.5501 -0.2767
   11HFI     H1  620   3.124   2.590   0.128 -2.9186  2.2439 -1.1869
   11HFI     H2  621   3.204   2.764   0.303  0.8750 -0.4167 -0.8460
   12HFI     O1  622   0.419   1.476   2.706 -0.1811 -0.4924  0.2697
   12HFI     C1  623   0.371   1.377   2.805 -0.0918 -0.0431  0.6065
   12HFI     C2  624   0.227   1.331   2.770 -0.4757  0.3072 -0.4672
   12HFI     F1  625   0.223   1.282   2.642  0.1915 -0.6856 -0.3973
   12HFI     F2  626   0.133   1.422   2.778  0.3905 -0.1878 -0.2134
   12HFI     F3  627   0.182   1.230   2.851 -0.1913 -0.2278  0.0306
   12HFI     C3  628   0.397   1.424   2.948  0.2941 -0.3163 -0.8492
   12HFI     F4  629   0.522   1.464   2.973 -0.1746  0.4667  0.0793
   12HFI     F5  630   0.382   1.321   3.040 -0.6198  0.0466  0.6156
   12HFI     F6  631   0.315   1.528   2.987 -0.0389 -0.1745  0.0132
   12HFI     H1  632   0.505   1.513   2.731 -0.1458 -0.7857  0.5989
   12HFI     H2  633   0.432   1.287   2.792  0.7281  0.6832 -0.7853
   13HFI     O1  634   3.314   2.592   1.578  0.1501 -0.9396  0.3207
   13HFI     C1  635   3.266   2.724   1.561  0.4621  0.1251 -0.9563
   13HFI     C2  636   3.144   2.740   1.462 -0.5064  0.0622  0.4745
   13HFI     F1  637   3.184   2.748   1.331 -0.1309  0.0039  0.1065
   13HFI     F2  638   3.078   2.855   1.487  0.0278 -0.0003  0.2082
   13HFI     F3  639   3.054   2.637   1.467 -0.3212  0.4757  0.2825
   13HFI     C3  640   3.377   2.828   1.529  0.0806  0.0871 -0.6514
   13HFI     F4  641   3.335   2.950   1.513 -0.0044 -0.0947  0.0410
   13HFI     F5  642   3.450   2.789   1.420  0.7165  0.3315  0.2007
   13HFI     F6  643   3.456   2.830   1.629  0.2335  0.5659 -0.0592
   13HFI     H1  644   3.372   2.563   1.505  0.1826 -1.2320  0.4632
   13HFI     H2  645   3.224   2.768   1.653 -1.4936 -2.0256 -0.7650
   14HFI     O1  646   2.392   0.791   3.659 -0.1237 -0.4771  0.0336
   14HFI     C1  647   2.349   0.749   3.532  0.3714 -0.4418 -0.3991
   14HFI     C2  648   2.381   0.591   3.510 -0.4570  0.0204 -0.1832
   14HFI     F1  649   2.300   0.511   3.587  0.3886 -0.3797 -0.1915
   14HFI     F2  650   2.513   0.566   3.539  0.5413  0.2425  0.0899
   14HFI     F3  651   2.361   0.559   3.380  0.1503  0.2116 -0.0015
   14HFI     C3  652   2.392   0.843   3.416  0.2514  0.2840 -0.0122
   14HFI     F4  653   2.383   0.974   3.439  0.2532 -0.3766  0.0626
   14HFI     F5  654   2.311   0.829   3.306 -0.0332  0.0446 -0.0801
   14HFI     F6  655   2.519   0.831   3.383  0.3915  0.2598  0.3359
   14HFI     H1  656   2.488   0.804   3.660 -0.2059  0.0933  1.3590
   14HFI     H2  657   2.240   0.762   3.534  0.5769  1.7164 -1.0635
   15HFI     O1  658   3.101   0.733   1.343 -0.3967  0.0071 -0.3363
   15HFI     C1  659   3.205   0.632   1.373  0.2768  0.0544 -0.3522
   15HFI     C2  660   3.219   0.516   1.269 -0.1376  0.6422 -0.3939
   15HFI     F1  661   3.124   0.416   1.272 -0.4577 -0.1676  0.2228
   15HFI     F2  662   3.337   0.450   1.277  0.1006 -0.7699  0.0859
   15HFI     F3  663   3.206   0.573   1.142  0.2220 -0.1023 -0.4596
   15HFI     C3  664   3.196   0.586   1.527 -0.1366 -0.8007  0.3358
   15HFI     F4  665   3.211   0.701   1.602  0.4120 -0.0088 -0.1278
   15HFI     F5  666   3.294   0.498   1.553 -0.2672 -0.1544  0.0469
   15HFI     F6  667   3.070   0.532   1.551  0.2631 -0.1856 -0.1296
   15HFI     H1  668   3.026   0.744   1.404 -1.5025 -0.6541 -1.5440
   15HFI     H2  669   3.298   0.690   1.374  0.1156  0.3159  0.8744
   16HFI     O1  670   3.280   0.772   2.315  0.2037 -0.2601 -0.4959
   16HFI     C1  671   3.322   0.626   2.307 -0.1731  0.4071 -0.7291
   16HFI     C2  672   3.204   0.536   2.276  0.4759  0.1043  0.4344
   16HFI     F1  673   3.130   0.508   2.384 -0.2145 -0.2004 -0.4606
   16HFI     F2  674   3.230   0.417   2.212 -0.0948  0.3584 -0.9296
   16HFI     F3  675   3.115   0.595   2.189  0.7018 -0.0135 -0.0129
   16HFI     C3  676   3.398   0.590   2.435  0.0482 -0.1255 -1.1342
   16HFI     F4  677   3.517   0.655   2.420  0.0220  0.1391 -0.0384
   16HFI     F5  678   3.426   0.460   2.451  0.2639 -0.1440  0.5386
   16HFI     F6  679   3.331   0.634   2.546 -0.7493 -0.0978  0.3142
   16HFI     H1  680   3.208   0.793   2.377  1.8641 -2.7268  2.3611
   16HFI     H2  681   3.402   0.612   2.233  0.2700  0.2774 -0.2236
   17HFI     O1  682   1.639   1.310   1.376 -0.1809 -0.7243  0.1562
   17HFI     C1  683   1.605   1.456   1.380  0.7488 -0.4747 -0.6107
   17HFI     C2  684   1.689   1.534   1.274  0.4806  0.1454  0.1011
   17HFI     F1  685   1.662   1.666   1.276 -0.0042  0.3393  0.3388
   17HFI     F2  686   1.671   1.493   1.144  0.3491  0.3091 -0.5726
   17HFI     F3  687   1.819   1.520   1.297 -0.7386 -0.0298 -0.0081
   17HFI     C3  688   1.611   1.510   1.529 -0.1721 -0.1500  0.0373
   17HFI     F4  689   1.526   1.613   1.536  0.0566 -0.6118  0.2214
   17HFI     F5  690   1.738   1.547   1.572 -0.2031 -0.4364  0.1769
   17HFI     F6  691   1.567   1.419   1.616 -0.1501  0.5421  0.4742
   17HFI     H1  692   1.733   1.303   1.351 -0.8714 -0.9393 -2.5524
   17HFI     H2  693   1.502   1.478   1.351  0.9427 -0.6373 -1.4197
   18HFI     O1  694   2.196   2.091   0.575  0.0515 -0.6325 -0.3540
   18HFI     C1  695   2.231   2.229   0.549 -0.5467 -0.0950 -0.5156
   18HFI     C2  696   2.198   2.333   0.664 -0.6843 -0.7464  0.3365
   18HFI     F1  697   2.238   2.457   0.629 -0.2689  0.1583 -0.0485
   18HFI     F2  698   2.273   2.312   0.775  0.2092 -0.1391  0.3756
   18HFI     F3  699   2.068   2.330   0.690  0.6618 -0.3170 -0.2371
   18HFI     C3  700   2.166   2.274   0.412 -0.1919  0.0769 -0.5538
   18HFI     F4  701   2.039   2.314   0.428  0.3807 -0.3066 -0.1904
   18HFI     F5  702   2.159   2.169   0.332 -0.0749 -0.2166  0.9616
   18HFI     F6  703   2.241   2.373   0.350 -0.7388 -0.4054 -0.4626
   18HFI     H1  704   2.190   2.097   0.672 -1.3625 -1.7059 -0.3546
   18HFI     H2  705   2.339   2.239   0.538  0.0052 -1.7341  2.7508
   19HFI     O1  706   3.256   1.397   2.509 -0.1651  0.7295  0.8061
   19HFI     C1  707   3.306   1.308   2.401  0.0304  0.4164  0.0385
   19HFI     C2  708   3.430   1.375   2.328 -0.8943 -0.4828  0.4433
   19HFI     F1  709   3.489   1.297   2.234  0.1180 -0.5022  0.0632
   19HFI     F2  710   3.529   1.416   2.410 -0.7215  0.2242  0.6230
   19HFI     F3  711   3.385   1.491   2.267 -0.4512 -0.2749  0.2556
   19HFI     C3  712   3.192   1.277   2.292 -0.2397 -0.4945  0.5471
   19HFI     F4  713   3.137   1.394   2.253 -0.2667 -0.0718 -0.0187
   19HFI     F5  714   3.100   1.199   2.354 -0.2212  0.3939 -0.0546
   19HFI     F6  715   3.241   1.208   2.186 -0.0230 -0.2158  0.1915
   19HFI     H1  716   3.327   1.419   2.572 -0.2099  2.1791  0.3853
   19HFI     H2  717   3.330   1.205   2.433  1.5848  0.6996 -0.2098
   20HFI     O1  718   2.296   1.798   1.281  0.0073 -0.2451 -0.0200
   20HFI     C1  719   2.210   1.823   1.397 -0.0710 -0.2135  0.0964
   20HFI     C2  720   2.274   1.912   1.504 -0.3254  0.6084  0.3189
   20HFI     F1  721   2.186   1.947   1.603  0.2795  0.1275 -0.3390
   20HFI     F2  722   2.319   2.026   1.444 -0.3381  0.2777 -0.3703
   20HFI     F3  723   2.390   1.858   1.569 -0.4307  0.7068 -0.6254
   20HFI     C3  724   2.137   1.697   1.452  0.3993  0.2400 -0.0111
   20HFI     F4  725   2.086   1.623   1.349  0.2840 -0.5899 -0.3540
   20HFI     F5  726   2.032   1.733   1.535  0.3920  0.3272  0.0143
   20HFI     F6  727   2.212   1.613   1.523  0.0050  0.1368  0.0173
   20HFI     H1  728   2.387   1.818   1.307 -0.1191 -2.9793  2.8533
   20HFI     H2  729   2.137   1.902   1.377  0.2367 -0.3820 -1.8126
   21HFI     O1  730   2.128   0.725   3.791  0.0148  0.2279  0.3856
   21HFI     C1  731   2.075   0.784   3.917 -0.1110 -1.0230 -0.1151
   21HFI     C2  732   2.055   0.935   3.907 -0.0268  0.3253  0.6141
   21HFI     F1  733   1.975   0.967   3.807  0.3131 -0.1006 -0.0977
   21HFI     F2  734   2.178   0.983   3.883 -0.1599 -0.2442  0.0378
   21HFI     F3  735   2.013   0.987   4.025  0.8452 -0.0327  0.4981
   21HFI     C3  736   2.156   0.735   4.044  0.3330 -0.3183 -0.1307
   21HFI     F4  737   2.287   0.760   4.032  0.0248  0.1814 -0.5692
   21HFI     F5  738   2.145   0.603   4.054  0.7703 -0.3282 -0.0457
   21HFI     F6  739   2.117   0.785   4.168  0.2676 -0.1794  0.1130
   21HFI     H1  740   2.221   0.751   3.776  0.1149 -2.0638 -3.6468
   21HFI     H2  741   1.971   0.760   3.944 -0.0911  1.1113  1.9757
   22HFI     O1  742   1.009   0.739   1.567  0.8805 -0.8829  0.7566
   22HFI     C1  743   0.942   0.692   1.447  0.0842 -0.0149  0.7341
   22HFI     C2  744   1.023   0.574   1.387  0.0484 -1.4835 -0.0727
   22HFI     F1  745   0.974   0.520   1.277  0.0851 -0.1065 -0.1719
   22HFI     F2  746   1.016   0.472   1.481 -0.5089 -0.0483 -0.2008
   22HFI     F3  747   1.154   0.601   1.373  0.3822  0.0316  0.1565
   22HFI     C3  748   0.919   0.804   1.340 -0.0374 -0.4451  0.3586
   22HFI     F4  749   0.827   0.770   1.245 -0.6134  0.1411  0.4175
   22HFI     F5  750   1.032   0.850   1.280  0.2614  0.5696  0.2711
   22HFI     F6  751   0.870   0.918   1.401 -0.4091  0.1737  0.2580
   22HFI     H1  752   1.096   0.780   1.554  0.7576 -0.6401  0.6875
   22HFI     H2  753   0.843   0.652   1.474 -1.3203  3.0557  0.2664
   23HFI     O1  754   3.237   3.420   3.742  0.0403  0.4554 -0.0288
   23HFI     C1  755   3.303   3.304   3.672 -0.4151 -1.0869 -0.0632
   23HFI     C2  756   3.243   3.275   3.528 -0.5060  0.0358 -0.6299
   23HFI     F1  757   3.255   3.379   3.446  0.1363  0.0130 -0.0484
   23HFI     F2  758   3.108   3.243   3.538 -0.2018  0.1809  0.0147
   23HFI     F3  759   3.311   3.176   3.465 -0.4475  0.1112  0.2989
   23HFI     C3  760   3.287   3.181   3.767 -0.1620  0.2373 -0.4717
   23HFI     F4  761   3.158   3.142   3.778 -0.2161 -0.0274  0.1938
   23HFI     F5  762   3.326   3.214   3.886 -0.0380 -0.1481 -0.6312
   23HFI     F6  763   3.365   3.074   3.735  0.3431 -1.2297  0.2493
   23HFI     H1  764   3.152   3.438   3.699  0.3936 -1.2901 -1.5298
   23HFI     H2  765   3.409   3.324   3.656 -0.5355 -2.1742 -2.3613
   24HFI     O1  766   2.770   3.219   1.315  0.1127  0.0869 -0.0814
   24HFI     C1  767   2.726   3.328   1.411 -0.5057  0.0248  0.8739
   24HFI     C2  768   2.837   3.360   1.507  0.2632 -0.1568  0.7603
   24HFI     F1  769   2.948   3.403   1.446 -0.1989 -0.3259  1.0827
   24HFI     F2  770   2.880   3.255   1.579  0.7127 -0.3232 -0.0043
   24HFI     F3  771   2.799   3.461   1.593 -0.1374 -0.0036  0.1430
   24HFI     C3  772   2.594   3.292   1.486  0.3344 -0.4989 -0.9214
   24HFI     F4  773   2.502   3.267   1.390 -0.1273  0.3988  0.1910
   24HFI     F5  774   2.545   3.395   1.569 -0.1759  0.2231  0.2466
   24HFI     F6  775   2.611   3.186   1.568  0.0805  0.6763  0.0903
   24HFI     H1  776   2.782   3.138   1.368  0.5279  0.3342  0.2036
   24HFI     H2  777   2.707   3.417   1.349  1.9606  0.1762  0.2880
   25HFI     O1  778   0.746   0.215   2.725 -0.0825  0.2631  0.0593
   25HFI     C1  779   0.730   0.068   2.739  1.1087 -0.1356  0.6819
   25HFI     C2  780   0.589   0.022   2.781 -0.2456  0.3010 -0.4109
   25HFI     F1  781   0.502   0.123   2.740  0.6093 -0.4542  0.1534
   25HFI     F2  782   0.565   0.009   2.912  0.2822  0.6231 -0.4166
   25HFI     F3  783   0.557  -0.098   2.719  0.1277 -0.4773 -0.1554
   25HFI     C3  784   0.839  -0.006   2.816 -0.2168 -0.2852 -0.0917
   25HFI     F4  785   0.870   0.046   2.941  0.8293 -0.0933 -0.2371
   25HFI     F5  786   0.943  -0.003   2.733  0.2297 -0.2382  0.3918
   25HFI     F6  787   0.805  -0.133   2.824  0.1027 -0.0956 -0.2478
   25HFI     H1  788   0.663   0.252   2.691 -0.2977  2.3666  2.6536
   25HFI     H2  789   0.745   0.028   2.637  2.4283  1.4734  0.2276
   26HFI     O1  790   1.653   0.291   3.499 -0.4449 -0.0199 -0.4675
   26HFI     C1  791   1.765   0.234   3.426  0.4853 -0.1548 -0.3316
   26HFI     C2  792   1.844   0.135   3.511  0.4510  0.4460 -0.5370
   26HFI     F1  793   1.949   0.075   3.452  0.2529  0.2735  0.2648
   26HFI     F2  794   1.770   0.030   3.561 -0.1588 -0.2775  0.3427
   26HFI     F3  795   1.892   0.188   3.628  0.2349  0.3337  0.2129
   26HFI     C3  796   1.862   0.348   3.381 -0.2332 -0.2932 -0.1171
   26HFI     F4  797   1.962   0.301   3.309  0.5101 -0.7105  0.1238
   26HFI     F5  798   1.913   0.419   3.489  0.4371 -0.4079  0.1926
   26HFI     F6  799   1.793   0.437   3.308  0.3438 -0.2508 -0.0255
   26HFI     H1  800   1.600   0.339   3.434 -1.4238 -0.0228  0.3084
   26HFI     H2  801   1.736   0.179   3.335  1.7420 -1.5795  0.1050
   27HFI     O1  802   0.235   2.770   3.624 -1.0130 -0.1504  0.0344
   27HFI     C1  803   0.219   2.787   3.766  0.1051 -0.2700 -0.1765
   27HFI     C2  804   0.352   2.836   3.838  0.2663  0.2289 -0.5137
   27HFI     F1  805   0.443   2.739   3.838 -0.0209 -0.0066 -0.2618
   27HFI     F2  806   0.325   2.873   3.964 -0.0253 -0.4660 -0.0359
   27HFI     F3  807   0.400   2.943   3.781 -0.1076  0.4662  0.2327
   27HFI     C3  808   0.165   2.661   3.843 -0.0425  0.9329 -1.2199
   27HFI     F4  809   0.138   2.687   3.971  0.0553  0.1320  0.0957
   27HFI     F5  810   0.252   2.550   3.846 -0.4799  0.1223  0.1042
   27HFI     F6  811   0.047   2.617   3.788  0.2081 -0.1273 -0.0813
   27HFI     H1  812   0.309   2.711   3.599 -0.8982  0.4022 -0.9730
   27HFI     H2  813   0.145   2.866   3.784  1.3762  0.7009  0.9596
   28HFI     O1  814   0.721   1.702   0.120 -0.5317  0.0516 -0.2200
   28HFI     C1  815   0.724   1.804   0.009 -0.2611  0.7203  0.1213
   28HFI     C2  816   0.626   1.753  -0.101 -0.5740 -0.3873  0.1336
   28HFI     F1  817   0.612   1.847  -0.202 -0.2499 -0.1838  0.3663
   28HFI     F2  818   0.504   1.738  -0.051 -0.2159  0.0515 -0.1089
   28HFI     F3  819   0.663   1.635  -0.150 -0.1414  0.0041 -0.1832
   28HFI     C3  820   0.869   1.851  -0.038 -0.4938  0.2320 -0.5815
   28HFI     F4  821   0.940   1.748  -0.082  0.6518  0.2741 -0.2395
   28HFI     F5  822   0.941   1.904   0.064 -0.4671 -0.4677  0.4521
   28HFI     F6  823   0.859   1.939  -0.141 -0.6950  0.2984 -0.6783
   28HFI     H1  824   0.695   1.612   0.095 -0.5788 -0.3709  1.3008
   28HFI     H2  825   0.674   1.892   0.052  0.1846  0.9052  0.2713
   29HFI     O1  826   1.064   2.959   1.318  0.1905 -0.1970 -0.2516
   29HFI     C1  827   0.968   3.016   1.416  0.2265  0.0336 -0.2510
   29HFI     C2  828   1.039   3.112   1.509 -0.3872 -0.4559 -0.3241
   29HFI     F1  829   0.964   3.188   1.593 -0.2176 -0.1238 -0.2596
   29HFI     F2  830   1.110   3.202   1.434  0.1207 -0.1100 -0.5897
   29HFI     F3  831   1.134   3.055   1.582 -0.3855  0.1566  0.0214
   29HFI     C3  832   0.901   2.905   1.496  0.1004 -0.9070 -0.4632
   29HFI     F4  833   0.843   2.819   1.415 -0.0204  0.1485 -0.3871
   29HFI     F5  834   0.799   2.949   1.573 -0.3157 -0.2551  0.4383
   29HFI     F6  835   0.991   2.835   1.562  0.0626 -0.4290 -0.2830
   29HFI     H1  836   1.126   2.903   1.367  1.3549 -0.5607 -2.0767
   29HFI     H2  837   0.880   3.067   1.377  0.5856  0.9841  0.1616
   30HFI     O1  838   2.419   1.343   0.962 -0.2607 -0.3406 -0.8089
   30HFI     C1  839   2.278   1.383   0.976  0.3287 -0.3516 -0.0687
   30HFI     C2  840   2.198   1.395   0.837 -0.1951  0.2952 -0.2130
   30HFI     F1  841   2.246   1.497   0.756  0.0309  0.0614  0.5204
   30HFI     F2  842   2.065   1.407   0.864 -0.3810 -0.1077  0.0985
   30HFI     F3  843   2.214   1.277   0.766 -0.4869  0.3031 -0.3433
   30HFI     C3  844   2.273   1.516   1.058  0.5286  0.3838 -0.0303
   30HFI     F4  845   2.318   1.489   1.188 -0.4437 -0.6634  0.3843
   30HFI     F5  846   2.148   1.566   1.080  0.5415 -0.1342 -0.6457
   30HFI     F6  847   2.352   1.607   1.004 -0.1729 -0.2229  0.2029
   30HFI     H1  848   2.469   1.405   0.908  1.5501 -2.8441 -2.1032
   30HFI     H2  849   2.230   1.304   1.035  0.7345 -0.2392  0.4124
   31HFI     O1  850   2.831   0.108   0.300 -0.3373  0.1370  0.2625
   31HFI     C1  851   2.926   0.214   0.286  0.1643  0.8682  0.1554
   31HFI     C2  852   2.984   0.226   0.140 -0.8125  0.0756  0.1503
   31HFI     F1  853   3.038   0.353   0.115  0.3123  1.3327  0.6133
   31HFI     F2  854   2.883   0.209   0.057  0.6901  0.3044  0.7031
   31HFI     F3  855   3.082   0.135   0.109 -0.1359 -0.1551  0.0568
   31HFI     C3  856   3.044   0.205   0.384  0.1728 -0.3788  0.5407
   31HFI     F4  857   3.137   0.297   0.358 -0.5140 -0.3716  0.2576
   31HFI     F5  858   3.110   0.092   0.386  0.1788  0.6957 -0.9020
   31HFI     F6  859   3.001   0.227   0.513 -0.4383 -0.4602 -0.3327
   31HFI     H1  860   2.784   0.118   0.384  1.6115  0.4487  1.3605
   31HFI     H2  861   2.871   0.304   0.316 -1.8444 -0.1290 -0.4518
   32HFI     O1  862   2.952   2.883   1.134  0.0456 -0.3364 -0.2466
   32HFI     C1  863   2.856   2.836   1.034 -0.7465  0.8341  0.3698
   32HFI     C2  864   2.931   2.819   0.898 -0.3563 -0.5350  0.4443
   32HFI     F1  865   2.858   2.747   0.814 -0.2361  0.2411 -0.1238
   32HFI     F2  866   3.052   2.757   0.916 -0.1336 -0.3471  0.4220
   32HFI     F3  867   2.958   2.944   0.846  0.1519 -0.0134 -0.1215
   32HFI     C3  868   2.721   2.919   1.033 -0.0768 -0.4356 -0.1891
   32HFI     F4  869   2.633   2.882   0.941 -0.3872 -0.1505  0.1370
   32HFI     F5  870   2.743   3.048   1.008 -0.6548  0.3958 -0.6189
   32HFI     F6  871   2.656   2.912   1.150  0.2055  0.6705 -0.1017
   32HFI     H1  872   2.990   2.960   1.089  2.2330 -2.2967 -1.9314
   32HFI     H2  873   2.817   2.738   1.064  0.2473 -0.2663 -1.8013
   33HFI     O1  874   2.879   0.969   2.814 -0.4015  0.0945 -0.2123
   33HFI     C1  875   2.800   1.014   2.700 -0.0784 -0.3088  0.1372
   33HFI     C2  876   2.877   1.118   2.617  0.4105  0.2501 -0.5101
   33HFI     F1  877   2.890   1.235   2.690 -0.3713 -0.1181 -0.4178
   33HFI     F2  878   2.826   1.147   2.493 -0.2678  0.0194 -0.5708
   33HFI     F3  879   3.000   1.070   2.588 -0.3859 -0.1350 -0.3012
   33HFI     C3  880   2.655   1.072   2.733  1.0861  0.9144 -0.6678
   33HFI     F4  881   2.569   0.981   2.780  0.2825 -0.3171 -0.0337
   33HFI     F5  882   2.595   1.121   2.618  0.1325  0.1342  0.1028
   33HFI     F6  883   2.670   1.164   2.830 -0.1445 -0.3152  0.8839
   33HFI     H1  884   2.916   1.043   2.866 -0.3381  0.3254 -0.5792
   33HFI     H2  885   2.784   0.932   2.630 -3.0622  0.3302 -0.0169
   34HFI     O1  886   2.760   2.570   3.214  0.1481 -0.1446 -0.3986
   34HFI     C1  887   2.822   2.439   3.203 -0.2178 -0.5631 -0.0330
   34HFI     C2  888   2.713   2.325   3.234 -0.2782 -0.1071  1.0129
   34HFI     F1  889   2.607   2.334   3.159  0.6839  0.0122  0.3043
   34HFI     F2  890   2.671   2.347   3.359  0.1614 -0.0121 -0.2035
   34HFI     F3  891   2.758   2.204   3.225 -0.5631 -0.4471  0.1520
   34HFI     C3  892   2.955   2.423   3.282  0.0340 -0.1657  0.0778
   34HFI     F4  893   3.037   2.516   3.216  0.3208  0.1193 -0.1724
   34HFI     F5  894   3.012   2.305   3.270  0.0025  0.2323 -0.0288
   34HFI     F6  895   2.940   2.463   3.410  0.8006  0.4516  0.2585
   34HFI     H1  896   2.700   2.569   3.290  0.4355 -5.3184 -0.0919
   34HFI     H2  897   2.849   2.418   3.099  1.4579  2.3551 -0.2057
   35HFI     O1  898   1.674   0.656   1.355 -0.2009  0.3706 -0.0248
   35HFI     C1  899   1.632   0.544   1.450  0.1077  0.3981 -0.1464
   35HFI     C2  900   1.758   0.485   1.512 -0.3605  0.5968  0.6249
   35HFI     F1  901   1.731   0.378   1.596  0.2560 -0.0933  0.4028
   35HFI     F2  902   1.823   0.579   1.591 -0.0061 -0.0944 -0.1509
   35HFI     F3  903   1.849   0.446   1.414  0.0855  0.1027  0.0228
   35HFI     C3  904   1.533   0.439   1.392  1.3893 -0.5006 -0.3207
   35HFI     F4  905   1.601   0.360   1.307 -0.4187  0.1626 -0.2691
   35HFI     F5  906   1.437   0.499   1.315 -0.4179  0.1687  0.4444
   35HFI     F6  907   1.470   0.363   1.488  0.4929  0.2338  0.6149
   35HFI     H1  908   1.768   0.679   1.368 -0.4189  0.7660  0.8614
   35HFI     H2  909   1.578   0.595   1.530 -0.7462 -0.3986 -0.2141
   36HFI     O1  910   1.393   0.781   1.022 -0.2075 -0.0437  0.2138
   36HFI     C1  911   1.337   0.644   1.028 -0.1159  0.2999  0.0759
   36HFI     C2  912   1.432   0.537   0.971 -0.0657  0.3693 -0.2321
   36HFI     F1  913   1.548   0.527   1.037 -0.0305 -0.1825  0.4134
   36HFI     F2  914   1.462   0.583   0.844  0.3738  0.5189 -0.1106
   36HFI     F3  915   1.379   0.407   0.954  0.3598 -0.1153 -0.4144
   36HFI     C3  916   1.188   0.641   0.968  0.0685  0.2140  0.0462
   36HFI     F4  917   1.193   0.675   0.838 -0.0463 -0.7173  0.4373
   36HFI     F5  918   1.120   0.730   1.040 -0.1321  0.2149 -0.1133
   36HFI     F6  919   1.125   0.523   0.981  0.2108 -0.1109  0.2767
   36HFI     H1  920   1.336   0.836   1.079 -0.3241 -2.0233  2.0700
   36HFI     H2  921   1.315   0.608   1.130  1.3097 -0.6371  0.0743
   37HFI     O1  922   0.404   0.039   1.579 -0.1523  0.6519  0.4017
   37HFI     C1  923   0.485  -0.006   1.463  0.4243 -0.4968  0.4654
   37HFI     C2  924   0.591  -0.104   1.503 -0.3540 -0.8899 -0.2050
   37HFI     F1  925   0.680  -0.040   1.584  0.0967  0.1291 -0.2120
   37HFI     F2  926   0.650  -0.165   1.396  0.5520 -0.3981  0.2048
   37HFI     F3  927   0.533  -0.207   1.574 -0.4234 -0.3955  0.1693
   37HFI     C3  928   0.533   0.114   1.379  0.1354  0.0328  0.1217
   37HFI     F4  929   0.561   0.084   1.249  0.2768  0.6818  0.7022
   37HFI     F5  930   0.652   0.166   1.429 -0.0474 -0.0393  0.1559
   37HFI     F6  931   0.442   0.216   1.390 -0.4408  0.3750  0.2030
   37HFI     H1  932   0.436   0.125   1.611 -1.0975  0.9192  0.6437
   37HFI     H2  933   0.424  -0.066   1.394 -1.0175 -1.5500  2.5887
   38HFI     O1  934   3.394   0.026   0.325  0.1183  0.3994  0.3327
   38HFI     C1  935   3.448   0.004   0.460 -0.6967  0.0352  0.2500
   38HFI     C2  936   3.394  -0.124   0.527 -0.8209 -0.7512  0.2174
   38HFI     F1  937   3.386  -0.226   0.434 -0.7581  0.0201  0.8748
   38HFI     F2  938   3.269  -0.105   0.568 -0.0831  0.0564  0.3840
   38HFI     F3  939   3.468  -0.166   0.633  0.4738 -0.4407 -0.1271
   38HFI     C3  940   3.445   0.128   0.547 -0.2577  0.8687  0.4488
   38HFI     F4  941   3.315   0.168   0.563  0.0386  1.1632  1.1483
   38HFI     F5  942   3.515   0.229   0.494  0.4850  0.1621  0.4643
   38HFI     F6  943   3.502   0.094   0.664 -0.1416 -0.2624  0.3403
   38HFI     H1  944   3.300   0.000   0.324  0.5048 -1.0265  0.2619
   38HFI     H2  945   3.556  -0.008   0.445 -0.8693 -1.2420  0.0180
   39HFI     O1  946   2.880   3.102   3.225  0.0482 -0.1888  0.4388
   39HFI     C1  947   2.815   2.998   3.149 -0.6277 -0.0345 -1.0594
   39HFI     C2  948   2.904   2.951   3.030  0.1736  0.1425 -0.2456
   39HFI     F1  949   2.844   2.856   2.957 -0.5034 -0.2623 -0.0969
   39HFI     F2  950   3.010   2.889   3.082 -0.2845 -0.0548 -0.2314
   39HFI     F3  951   2.938   3.051   2.954 -0.0257  0.2918  0.1093
   39HFI     C3  952   2.673   3.046   3.100  0.3171 -0.9197 -0.5985
   39HFI     F4  953   2.632   2.997   2.983 -0.3355  0.1984  0.5426
   39HFI     F5  954   2.679   3.179   3.071  0.3753  0.1395  0.2617
   39HFI     F6  955   2.577   3.030   3.185  0.1789 -0.1664 -0.6686
   39HFI     H1  956   2.891   3.082   3.319 -2.7796  0.3465  0.9120
   39HFI     H2  957   2.809   2.904   3.204 -0.0927 -0.0890 -1.0990
   40HFI     O1  958   2.688   0.984   0.578  0.0715  0.0148  0.0856
   40HFI     C1  959   2.656   1.117   0.527  0.4707 -0.5449  0.8485
   40HFI     C2  960   2.744   1.227   0.590  0.0773 -0.3081  0.8442
   40HFI     F1  961   2.684   1.294   0.697 -0.0012  0.2552 -0.3308
   40HFI     F2  962   2.771   1.325   0.499 -0.1093 -0.2834 -0.0905
   40HFI     F3  963   2.860   1.166   0.632  0.3471 -0.0509  0.0407
   40HFI     C3  964   2.506   1.153   0.544 -0.0319  0.3504 -0.5187
   40HFI     F4  965   2.433   1.074   0.467  0.4593 -0.1332  0.6642
   40HFI     F5  966   2.468   1.275   0.508  0.3035  0.1081  0.0796
   40HFI     F6  967   2.466   1.124   0.670 -0.1614  0.5750  0.2712
   40HFI     H1  968   2.674   0.984   0.674 -0.3116 -0.7540  0.0279
   40HFI     H2  969   2.654   1.123   0.418  1.7595 -2.9675  0.6372
   41HFI     O1  970   2.866   0.613   0.199  0.2184  0.2264 -0.1902
   41HFI     C1  971   2.751   0.685   0.148  0.8441 -0.4241  0.1187
   41HFI     C2  972   2.787   0.756   0.013 -0.1364 -0.5750  0.5386
   41HFI     F1  973   2.886   0.851   0.024 -0.3160  0.4057  0.8476
   41HFI     F2  974   2.680   0.820  -0.043  0.2875  0.0987  0.1603
   41HFI     F3  975   2.828   0.673  -0.076 -0.0230  0.5741  0.0473
   41HFI     C3  976   2.684   0.775   0.254 -0.4213 -0.3103  0.1101
   41HFI     F4  977   2.640   0.706   0.363 -0.3830  0.0986  0.2923
   41HFI     F5  978   2.580   0.835   0.204  0.0038 -0.1192  0.2264
   41HFI     F6  979   2.773   0.875   0.298 -0.1955  0.0411  0.1499
   41HFI     H1  980   2.952   0.649   0.169 -0.6006 -0.0384 -2.9971
   41HFI     H2  981   2.663   0.623   0.126  1.2183 -0.9733  0.1921
   42HFI     O1  982   0.956   2.978   0.366  0.1390  0.5732 -0.2831
   42HFI     C1  983   0.971   3.095   0.456 -0.2826 -0.4620  0.3725
   42HFI     C2  984   0.847   3.184   0.443  0.1183 -0.2423  0.7130
   42HFI     F1  985   0.811   3.256   0.551 -0.4167  0.6212 -0.2661
   42HFI     F2  986   0.742   3.109   0.421  0.7021 -0.4332 -0.1602
   42HFI     F3  987   0.854   3.264   0.331  0.0428 -0.0886 -0.3111
   42HFI     C3  988   1.106   3.174   0.429 -0.1171 -0.1390  0.9817
   42HFI     F4  989   1.212   3.108   0.471  0.0567 -0.1228 -0.2705
   42HFI     F5  990   1.104   3.294   0.490  0.1218 -0.0637  0.3603
   42HFI     F6  991   1.117   3.196   0.299  0.6610 -0.2415  0.1518
   42HFI     H1  992   0.954   3.010   0.275 -2.6583 -1.9193 -1.1838
   42HFI     H2  993   0.977   3.065   0.561 -1.2016  0.1740  0.6157
   43HFI     O1  994   2.218   2.712   2.923  0.1572 -0.2283 -0.0488
   43HFI     C1  995   2.236   2.857   2.928  0.8757  0.5626  0.5286
   43HFI     C2  996   2.116   2.936   2.991 -0.4916 -0.1183  0.1761
   43HFI     F1  997   2.078   2.882   3.109 -0.1945  0.1291  0.0023
   43HFI     F2  998   2.007   2.942   2.915  0.0272 -0.3588  0.1623
   43HFI     F3  999   2.151   3.059   3.027 -0.4907  0.0616  0.0959
   43HFI     C3 1000   2.276   2.921   2.794  0.0790 -0.0820  0.1027
   43HFI     F4 1001   2.361   2.844   2.715 -0.1491  0.9337 -0.2748
   43HFI     F5 1002   2.345   3.038   2.821  0.5975 -0.3761  0.0038
   43HFI     F6 1003   2.162   2.948   2.719  0.2006 -0.1743 -0.8591
   43HFI     H1 1004   2.294   2.682   2.869  0.4468 -0.4296  0.4719
   43HFI     H2 1005   2.320   2.869   2.997  1.6109 -0.5873 -0.1469
   44HFI     O1 1006   0.974   0.538   2.200 -0.0378  0.0414  0.1448
   44HFI     C1 1007   0.896   0.552   2.323 -0.7956  0.4390 -0.0268
   44HFI     C2 1008   0.751   0.507   2.300  0.3643  0.0653 -0.2340
   44HFI     F1 1009   0.683   0.608   2.236 -0.8445  0.2966  0.7874
   44HFI     F2 1010   0.685   0.488   2.416  0.4074  0.2269  0.1561
   44HFI     F3 1011   0.736   0.397   2.228  0.0295 -0.0791  0.0534
   44HFI     C3 1012   0.907   0.706   2.384 -0.9030  0.0788 -0.5668
   44HFI     F4 1013   1.030   0.713   2.435  0.3870  0.0181 -0.6188
   44HFI     F5 1014   0.817   0.726   2.481  0.3233  0.0057  0.2450
   44HFI     F6 1015   0.892   0.801   2.288 -0.1773  0.3562  0.2504
   44HFI     H1 1016   1.028   0.457   2.199  1.6202  1.1007  1.2784
   44HFI     H2 1017   0.943   0.489   2.400 -0.1796 -1.5531 -2.0065
   45HFI     O1 1018   0.656   2.164   0.616  0.1535  0.8910  0.1212
   45HFI     C1 1019   0.516   2.137   0.665 -0.8561  0.7360  0.2573
   45HFI     C2 1020   0.411   2.134   0.549 -0.7625  0.4417 -0.2413
   45HFI     F1 1021   0.285   2.097   0.583 -0.1368  0.2904  0.3972
   45HFI     F2 1022   0.442   2.042   0.459  0.2510  0.7262  0.0666
   45HFI     F3 1023   0.403   2.250   0.482 -0.1393 -0.5327 -0.7718
   45HFI     C3 1024   0.477   2.233   0.774 -0.2637  0.2380 -0.2928
   45HFI     F4 1025   0.551   2.191   0.879  0.5141 -0.3480 -0.3147
   45HFI     F5 1026   0.346   2.246   0.793 -0.1731  0.3944 -0.2490
   45HFI     F6 1027   0.519   2.359   0.734  0.4371 -0.6308  0.0215
   45HFI     H1 1028   0.663   2.251   0.573 -0.5766  1.4214  1.0596
   45HFI     H2 1029   0.510   2.041   0.717  0.1546  1.4106  1.6435
   46HFI     O1 1030   2.808   2.709   1.333  0.2675  0.1648  0.3195
   46HFI     C1 1031   2.690   2.740   1.409  0.1487 -0.4620  0.8168
   46HFI     C2 1032   2.706   2.870   1.487 -0.2209 -0.0077 -0.2275
   46HFI     F1 1033   2.802   2.875   1.592 -0.4852 -0.1346  0.0984
   46HFI     F2 1034   2.591   2.902   1.536 -1.2146  0.0976 -0.3117
   46HFI     F3 1035   2.734   2.975   1.408 -0.2576 -0.0739 -0.1486
   46HFI     C3 1036   2.653   2.618   1.505 -0.3493  0.2474  0.3826
   46HFI     F4 1037   2.763   2.587   1.584 -0.4933  0.2303 -0.6299
   46HFI     F5 1038   2.626   2.515   1.428 -0.2511  0.3378 -0.4712
   46HFI     F6 1039   2.546   2.640   1.584 -0.1164  0.2364 -0.1616
   46HFI     H1 1040   2.881   2.690   1.393  0.4103 -0.9660 -0.2102
   46HFI     H2 1041   2.599   2.755   1.350  0.9031 -1.5788 -0.6517
   47HFI     O1 1042   0.350   3.272   3.706 -0.1105  0.0155  0.4599
   47HFI     C1 1043   0.382   3.348   3.825  0.3045  0.9026 -0.3415
   47HFI     C2 1044   0.533   3.317   3.867 -0.5713 -0.2111 -0.3845
   47HFI     F1 1045   0.557   3.202   3.937 -0.1815 -0.3071 -0.6104
   47HFI     F2 1046   0.588   3.419   3.936 -0.0982  0.0789 -0.0992
   47HFI     F3 1047   0.616   3.316   3.757  0.1412  0.0814 -0.2890
   47HFI     C3 1048   0.274   3.334   3.937  0.3431  0.1860 -0.3353
   47HFI     F4 1049   0.308   3.393   4.049 -0.2824 -0.0147 -0.8474
   47HFI     F5 1050   0.235   3.212   3.965  0.5605 -0.1560  0.4485
   47HFI     F6 1051   0.163   3.404   3.897  0.4404 -0.0136  0.4232
   47HFI     H1 1052   0.299   3.326   3.644 -0.8999 -1.6512 -0.3850
   47HFI     H2 1053   0.385   3.456   3.805 -0.7900  0.9367 -0.3513
   48HFI     O1 1054   1.827   2.095   0.473  0.2129 -0.3530  0.4858
   48HFI     C1 1055   1.684   2.138   0.476 -0.2006 -0.0198  0.1191
   48HFI     C2 1056   1.607   2.114   0.349 -0.4451 -0.4294 -0.0755
   48HFI     F1 1057   1.642   2.197   0.250  0.4303 -0.3736  0.0281
   48HFI     F2 1058   1.472   2.135   0.366  0.6846 -0.1127  0.1451
   48HFI     F3 1059   1.624   1.986   0.307 -0.0035  0.2527 -0.6014
   48HFI     C3 1060   1.681   2.281   0.545  0.1171  1.0416  0.5192
   48HFI     F4 1061   1.731   2.367   0.460  0.3630  0.0929 -0.4150
   48HFI     F5 1062   1.753   2.292   0.659  0.0702 -0.0799  0.2226
   48HFI     F6 1063   1.548   2.321   0.565 -0.0406 -0.0798  0.1064
   48HFI     H1 1064   1.862   2.111   0.384  1.5154  1.5127  1.3033
   48HFI     H2 1065   1.636   2.081   0.557 -0.0462 -1.6389 -0.9099
   49HFI     O1 1066   0.337   2.791   1.318  0.1032 -0.7393 -0.3598
   49HFI     C1 1067   0.331   2.929   1.363 -0.2054 -0.1732 -0.0141
   49HFI     C2 1068   0.424   3.022   1.278 -0.4916 -0.3162  0.2875
   49HFI     F1 1069   0.400   3.150   1.308 -0.1896 -0.1954 -0.6238
   49HFI     F2 1070   0.403   3.003   1.142  0.3657  0.5130 -0.1199
   49HFI     F3 1071   0.553   2.992   1.301  0.1131  0.7225 -0.0822
   49HFI     C3 1072   0.359   2.942   1.512  0.4352  0.3023 -0.2843
   49HFI     F4 1073   0.335   2.818   1.565  0.2205 -0.4549  0.3468
   49HFI     F5 1074   0.273   3.025   1.565 -0.2570  0.4953 -0.3555
   49HFI     F6 1075   0.483   2.976   1.542 -0.2862 -0.2635  0.0527
   49HFI     H1 1076   0.309   2.735   1.392  0.9670 -0.6596  0.0407
   49HFI     H2 1077   0.227   2.959   1.348 -0.3250  0.0732  1.2004
   50HFI     O1 1078   0.011   0.767   2.884 -0.2294 -0.1934 -0.1250
   50HFI     C1 1079  -0.000   0.908   2.844 -0.7216 -0.2936 -0.4303
   50HFI     C2 1080  -0.098   0.992   2.937  0.2469 -0.3006 -0.3037
   50HFI     F1 1081  -0.220   0.931   2.955 -0.0347 -0.3516  0.0728
   50HFI     F2 1082  -0.127   1.115   2.880  0.0271 -0.0571  0.4078
   50HFI     F3 1083  -0.040   1.007   3.058 -0.2543  0.3769  0.1792
   50HFI     C3 1084  -0.024   0.937   2.694  0.1193 -0.1829 -0.9339
   50HFI     F4 1085  -0.154   0.915   2.659  0.0936  0.0031  0.4938
   50HFI     F5 1086   0.049   0.857   2.614 -0.2739  0.1036  0.1564
   50HFI     F6 1087   0.008   1.071   2.663  0.1617  0.2219 -0.5477
   50HFI     H1 1088  -0.077   0.733   2.907 -0.4858 -0.4218 -1.4028
   50HFI     H2 1089   0.096   0.957   2.865  0.2926 -1.9268 -1.2025
   51HFI     O1 1090   1.153   1.809   2.373 -0.2562 -0.6153  0.2533
   51HFI     C1 1091   1.074   1.870   2.267  0.4171 -0.0175  0.7184
   51HFI     C2 1092   1.080   2.022   2.300  0.9715 -0.1645  0.2189
   51HFI     F1 1093   1.209   2.057   2.303 -0.1924 -0.0762  0.1677
   51HFI     F2 1094   1.027   2.054   2.424  0.5403 -0.0227 -0.1140
   51HFI     F3 1095   1.019   2.108   2.204 -0.2517  0.3207 -0.1918
   51HFI     C3 1096   0.932   1.804   2.261  0.0274 -0.7838  0.1081
   51HFI     F4 1097   0.843   1.874   2.184  0.2796  0.0227  0.3112
   51HFI     F5 1098   0.878   1.805   2.385 -0.1698  0.3565 -0.0280
   51HFI     F6 1099   0.925   1.678   2.221  0.3083 -0.2602  0.0212
   51HFI     H1 1100   1.093   1.761   2.432 -2.2851 -0.3411 -1.5065
   51HFI     H2 1101   1.128   1.848   2.174  1.4369 -0.6877  1.4588
   52HFI     O1 1102   2.687   2.451   3.693 -0.1110  0.3910  0.1572
   52HFI     C1 1103   2.572   2.510   3.761 -0.0128 -0.0823 -0.3568
   52HFI     C2 1104   2.608   2.607   3.874  0.7901 -0.0958  0.1671
   52HFI     F1 1105   2.694   2.545   3.960 -0.0502 -0.1917 -0.2047
   52HFI     F2 1106   2.505   2.660   3.941 -0.1999  0.3712  0.1909
   52HFI     F3 1107   2.665   2.715   3.818 -0.0190 -0.3651  0.6965
   52HFI     C3 1108   2.463   2.403   3.796 -0.2110 -0.3100  0.1797
   52HFI     F4 1109   2.447   2.319   3.691 -0.2601 -0.7328 -0.0602
   52HFI     F5 1110   2.351   2.472   3.817  0.1558  0.0873 -0.3997
   52HFI     F6 1111   2.494   2.335   3.905 -0.4188 -0.4429 -0.0565
   52HFI     H1 1112   2.749   2.410   3.755 -0.6690 -0.1033  0.3956
   52HFI     H2 1113   2.521   2.567   3.682 -1.1052 -2.4124 -1.3698
   53HFI     O1 1114   2.714   2.154   1.041  0.4270 -0.1934  0.0563
   53HFI     C1 1115   2.629   2.049   1.005  0.3501  0.2402  0.1564
   53HFI     C2 1116   2.485   2.096   0.958 -0.0964 -0.1154  0.6016
   53HFI     F1 1117   2.400   1.996   0.920  0.5133  0.6304  0.0332
   53HFI     F2 1118   2.499   2.174   0.845 -0.6082  0.1455  0.4753
   53HFI     F3 1119   2.425   2.174   1.048  0.0951 -0.2306 -0.6699
   53HFI     C3 1120   2.614   1.938   1.104 -0.1483 -0.4612 -0.0204
   53HFI     F4 1121   2.567   1.823   1.062 -0.4598 -0.2658  0.5325
   53HFI     F5 1122   2.534   1.973   1.214 -0.1827  0.0632  0.2888
   53HFI     F6 1123   2.729   1.907   1.157 -0.1168  0.0648 -0.1421
   53HFI     H1 1124   2.698   2.232   0.984 -0.8931  1.6639  2.8776
   53HFI     H2 1125   2.671   1.996   0.918 -0.7423  0.9758 -0.8318
   54HFI     O1 1126   0.073   1.099   1.022 -0.2225 -0.0105 -0.7187
   54HFI     C1 1127   0.016   1.207   0.943  0.1069 -0.0069  0.0472
   54HFI     C2 1128   0.074   1.343   0.985 -0.4704 -0.1090  0.4590
   54HFI     F1 1129   0.007   1.445   0.925  0.3370  0.0799 -0.3361
   54HFI     F2 1130   0.202   1.363   0.945  0.2146 -0.0718 -0.7890
   54HFI     F3 1131   0.063   1.353   1.122  0.0135  0.6864  0.3496
   54HFI     C3 1132  -0.148   1.207   0.942 -0.3370  0.3957  0.6279
   54HFI     F4 1133  -0.198   1.082   0.947  0.1171  0.3960  0.3168
   54HFI     F5 1134  -0.195   1.267   0.832  0.4743  0.1347 -0.1909
   54HFI     F6 1135  -0.192   1.280   1.046  0.5332  0.0550 -0.4308
   54HFI     H1 1136   0.047   1.110   1.115 -0.1289 -0.4099 -0.6438
   54HFI     H2 1137   0.042   1.206   0.836 -1.4140 -2.0154 -0.3291
   55HFI     O1 1138   0.273   0.566   1.476  0.2717  0.5347  0.4645
   55HFI     C1 1139   0.391   0.635   1.517  0.1539 -0.4481 -0.7905
   55HFI     C2 1140   0.410   0.771   1.441  0.3748  0.3010  0.3328
   55HFI     F1 1141   0.301   0.852   1.454 -0.3011  0.3301  0.3553
   55HFI     F2 1142   0.425   0.753   1.306  0.1557 -0.4307  0.1562
   55HFI     F3 1143   0.520   0.848   1.484  0.0194  0.1339 -0.5929
   55HFI     C3 1144   0.508   0.540   1.507  0.6426  0.3574 -0.2465
   55HFI     F4 1145   0.473   0.423   1.575 -0.6156  0.1398 -0.2771
   55HFI     F5 1146   0.624   0.581   1.560  0.2338  0.5609 -0.2436
   55HFI     F6 1147   0.524   0.508   1.375  0.5626 -0.0425  0.1940
   55HFI     H1 1148   0.294   0.498   1.410  1.2981  0.8401  0.4742
   55HFI     H2 1149   0.386   0.671   1.620  0.2832 -1.0104 -0.5877
   56HFI     O1 1150   3.282   1.422   0.263 -0.1847 -0.1792  0.0478
   56HFI     C1 1151   3.338   1.460   0.392 -1.2386  0.0198  0.2948
   56HFI     C2 1152   3.373   1.335   0.487 -0.4036 -0.0950 -0.1879
   56HFI     F1 1153   3.481   1.268   0.428 -0.0045 -0.2859 -0.3442
   56HFI     F2 1154   3.267   1.249   0.505  0.1000  0.0935  0.3084
   56HFI     F3 1155   3.426   1.373   0.607  0.1261 -0.6387 -0.2208
   56HFI     C3 1156   3.239   1.560   0.454 -0.3609 -0.1425  0.1850
   56HFI     F4 1157   3.171   1.633   0.363  0.2407 -0.0601 -0.2921
   56HFI     F5 1158   3.304   1.655   0.529  0.0301 -0.2298  0.2748
   56HFI     F6 1159   3.146   1.517   0.551 -0.3385  0.0005  0.0946
   56HFI     H1 1160   3.346   1.360   0.225 -1.1719 -1.2743  0.1291
   56HFI     H2 1161   3.433   1.514   0.387 -1.1895  0.0709  1.6494
   57HFI     O1 1162   1.799   0.549   3.007 -0.7285 -0.5475  0.3926
   57HFI     C1 1163   1.872   0.597   2.887 -0.8550 -0.0495  0.0719
   57HFI     C2 1164   1.952   0.726   2.929  0.3030 -0.6166  0.0003
   57HFI     F1 1165   2.042   0.771   2.837 -0.0234 -0.0039  0.1674
   57HFI     F2 1166   2.021   0.694   3.042  0.7291 -0.6474 -0.2532
   57HFI     F3 1167   1.872   0.840   2.962 -0.3081  0.4987  0.0756
   57HFI     C3 1168   1.784   0.617   2.763  0.3904  1.1684 -0.6034
   57HFI     F4 1169   1.697   0.722   2.781 -0.1824 -0.0291 -0.5343
   57HFI     F5 1170   1.714   0.497   2.740  0.5243  0.1857  0.7627
   57HFI     F6 1171   1.862   0.636   2.650  0.3906 -0.4805  0.3939
   57HFI     H1 1172   1.861   0.547   3.082 -1.9835  0.8414  1.5072
   57HFI     H2 1173   1.957   0.537   2.852 -0.5717 -0.0885  0.8070
   58HFI     O1 1174   1.370   1.528   1.162 -0.0211 -0.6152 -0.3157
   58HFI     C1 1175   1.320   1.455   1.049  0.8759  0.0589  0.3883
   58HFI     C2 1176   1.332   1.298   1.066 -0.5605 -0.0495  0.2391
   58HFI     F1 1177   1.457   1.271   1.117 -0.0564 -0.6269  0.1127
   58HFI     F2 1178   1.320   1.229   0.947 -0.4113  0.2728 -0.1215
   58HFI     F3 1179   1.242   1.249   1.151 -0.5102 -0.2225  0.3716
   58HFI     C3 1180   1.380   1.496   0.915 -0.0812  1.0932  0.4919
   58HFI     F4 1181   1.285   1.474   0.818 -0.8778 -0.7166  0.1268
   58HFI     F5 1182   1.490   1.439   0.886  0.6606 -0.2894  0.2967
   58HFI     F6 1183   1.411   1.629   0.915  0.0141 -0.4742 -0.4894
   58HFI     H1 1184   1.367   1.623   1.146  1.3083 -0.3504  0.8927
   58HFI     H2 1185   1.214   1.478   1.034  0.9516  0.3386  0.2776
   59HFI     O1 1186   2.087   2.879   1.312 -0.4928  0.2079 -0.2444
   59HFI     C1 1187   2.130   2.964   1.421 -0.5847  0.4790  0.3216
   59HFI     C2 1188   2.263   2.927   1.482  0.4973  0.5913  0.0346
   59HFI     F1 1189   2.269   2.811   1.552  0.1805  0.0117 -0.4954
   59HFI     F2 1190   2.312   3.028   1.555  0.1472  0.4395 -0.2939
   59HFI     F3 1191   2.343   2.907   1.380  0.5424 -0.4013  0.0234
   59HFI     C3 1192   2.023   2.968   1.526  0.1255  0.0939  0.1117
   59HFI     F4 1193   2.016   2.854   1.601 -0.1455  0.0566  0.0760
   59HFI     F5 1194   1.899   2.983   1.472 -0.0727 -0.1046 -0.3044
   59HFI     F6 1195   2.045   3.074   1.603 -0.0984 -0.2167 -0.4253
   59HFI     H1 1196   2.053   2.800   1.358  1.1809 -1.2224 -1.3590
   59HFI     H2 1197   2.140   3.064   1.376  0.4918 -0.0749 -0.7035
   60HFI     O1 1198   1.224   0.868   0.356 -0.0489  0.3509 -0.6868
   60HFI     C1 1199   1.171   0.844   0.225 -0.1580  0.8236 -0.0902
   60HFI     C2 1200   1.101   0.965   0.172  0.1099  0.2801  0.9882
   60HFI     F1 1201   1.192   1.066   0.169  0.0769  0.4639 -0.3163
   60HFI     F2 1202   0.996   0.998   0.257 -0.0947 -0.1203  0.6066
   60HFI     F3 1203   1.044   0.949   0.041  0.1537 -0.2846 -0.9038
   60HFI     C3 1204   1.088   0.716   0.228  0.4688  0.1811 -0.5803
   60HFI     F4 1205   0.965   0.732   0.296  0.4281  1.3545 -0.0555
   60HFI     F5 1206   1.151   0.613   0.281  0.1972 -0.0549 -0.0052
   60HFI     F6 1207   1.058   0.679   0.108  0.6839  0.5889  0.3358
   60HFI     H1 1208   1.289   0.800   0.380  0.7000  0.9087 -1.1030
   60HFI     H2 1209   1.253   0.829   0.153 -1.0620  3.5631 -1.7749
   61HFI     O1 1210   1.711   1.702   0.390 -0.3432  0.1062  0.3740
   61HFI     C1 1211   1.748   1.645   0.520  0.7790 -0.1861 -0.1716
   61HFI     C2 1212   1.663   1.709   0.631  0.6010  0.4853  0.4913
   61HFI     F1 1213   1.535   1.681   0.604  0.1137  0.1642  0.2064
   61HFI     F2 1214   1.670   1.849   0.641  0.3438  0.5533 -0.2261
   61HFI     F3 1215   1.690   1.646   0.749  0.1517  0.0037  0.3960
   61HFI     C3 1216   1.900   1.654   0.554  0.4971  0.9285  0.2889
   61HFI     F4 1217   1.939   1.595   0.675 -0.1548  0.3169 -0.0090
   61HFI     F5 1218   1.946   1.780   0.557 -0.2606 -0.2780 -0.0938
   61HFI     F6 1219   1.963   1.579   0.460  0.3665  0.2725 -0.3669
   61HFI     H1 1220   1.792   1.705   0.336 -0.5768 -0.7477 -0.0190
   61HFI     H2 1221   1.723   1.538   0.529  3.6403 -1.0109 -1.3719
   62HFI     O1 1222   1.690   0.294   0.845 -0.2922 -0.7914 -0.0790
   62HFI     C1 1223   1.669   0.221   0.971 -0.3227 -0.9460  0.1386
   62HFI     C2 1224   1.799   0.217   1.059 -0.0355  0.0519  0.2542
   62HFI     F1 1225   1.895   0.148   0.999 -0.4636  0.2415 -0.1674
   62HFI     F2 1226   1.769   0.157   1.175 -0.0895 -0.6751 -0.0334
   62HFI     F3 1227   1.838   0.343   1.083 -0.4746  0.2881 -0.0655
   62HFI     C3 1228   1.607   0.087   0.941  0.7403  0.5166  0.0161
   62HFI     F4 1229   1.669   0.027   0.838 -0.1297  0.1682  0.0885
   62HFI     F5 1230   1.479   0.110   0.892 -0.2254  0.3493 -0.2154
   62HFI     F6 1231   1.593  -0.002   1.047 -0.3172 -0.1052  0.2733
   62HFI     H1 1232   1.630   0.273   0.772  2.4200  0.3762 -2.7403
   62HFI     H2 1233   1.587   0.271   1.024 -1.0901 -1.6518 -0.3664
   63HFI     O1 1234   1.610   0.710   3.235 -0.2366  0.3140  0.4638
   63HFI     C1 1235   1.473   0.663   3.216  0.4125 -0.0102  0.3775
   63HFI     C2 1236   1.392   0.719   3.334 -0.0846 -0.4153 -0.3579
   63HFI     F1 1237   1.417   0.851   3.358  0.0739 -0.1100  0.4012
   63HFI     F2 1238   1.422   0.654   3.448 -0.2338  0.5033 -0.0608
   63HFI     F3 1239   1.262   0.709   3.319  0.6906 -0.2241 -0.1418
   63HFI     C3 1240   1.461   0.506   3.210  0.7538  0.6269  0.2747
   63HFI     F4 1241   1.329   0.475   3.196  0.0999 -0.2908 -0.9353
   63HFI     F5 1242   1.509   0.443   3.323  0.4896 -0.1451  0.0459
   63HFI     F6 1243   1.519   0.454   3.109 -0.0034  0.1325  0.0771
   63HFI     H1 1244   1.613   0.798   3.194  0.0518 -0.7440 -1.8572
   63HFI     H2 1245   1.429   0.698   3.122 -0.3569  3.0953  1.8482
   64HFI     O1 1246   0.343   2.168   0.171 -0.2357  0.5299 -0.2553
   64HFI     C1 1247   0.377   2.244   0.058 -0.0855 -0.2395  0.0714
   64HFI     C2 1248   0.391   2.159  -0.067  0.1190  0.5839  0.0351
   64HFI     F1 1249   0.452   2.224  -0.170  0.4250 -0.1055  0.3791
   64HFI     F2 1250   0.270   2.121  -0.108  0.4777  0.3624 -0.3338
   64HFI     F3 1251   0.460   2.043  -0.045 -0.8823 -0.0595  0.0179
   64HFI     C3 1252   0.513   2.323   0.084  0.2433  0.4124 -0.0109
   64HFI     F4 1253   0.526   2.374   0.204 -0.2464 -0.4513  0.3113
   64HFI     F5 1254   0.513   2.428   0.005 -0.3471 -0.7071  0.1028
   64HFI     F6 1255   0.624   2.251   0.063  0.2526  0.1133 -0.5652
   64HFI     H1 1256   0.313   2.226   0.243  4.0021  3.4020 -0.6405
   64HFI     H2 1257   0.302   2.322   0.037  1.3856  1.3349  0.5825
   65HFI     O1 1258   2.118   0.957   0.936  0.7490 -0.1668  0.6289
   65HFI     C1 1259   2.254   0.938   0.896  0.6645  0.2073  0.0084
   65HFI     C2 1260   2.256   0.853   0.765 -0.2105 -0.2680  0.1347
   65HFI     F1 1261   2.193   0.737   0.787  0.5029 -0.1890 -0.1297
   65HFI     F2 1262   2.381   0.831   0.722 -0.0342 -0.3810  0.2389
   65HFI     F3 1263   2.186   0.921   0.673 -0.8850  0.0211  0.2124
   65HFI     C3 1264   2.339   0.869   1.008  0.1843 -0.1362  0.8051
   65HFI     F4 1265   2.279   0.746   1.047 -0.1211  0.0076  0.0575
   65HFI     F5 1266   2.340   0.950   1.114 -0.4810  0.2593 -0.3691
   65HFI     F6 1267   2.466   0.857   0.960  0.1007  0.2558 -0.3098
   65HFI     H1 1268   2.066   0.880   0.909 -1.9061  1.3006  1.3850
   65HFI     H2 1269   2.308   1.033   0.885 -1.0347  1.2028  0.0749
   66HFI     O1 1270   3.143   3.090   1.065  0.5030  0.7639  0.1267
   66HFI     C1 1271   3.273   3.043   1.012  0.2261  0.0415 -0.0260
   66HFI     C2 1272   3.399   3.060   1.109  0.4251  0.1771 -0.2135
   66HFI     F1 1273   3.443   3.191   1.098  0.1580 -0.0466  0.0386
   66HFI     F2 1274   3.495   2.983   1.075  0.3243  0.1598 -0.2600
   66HFI     F3 1275   3.374   3.028   1.239 -0.0737  0.8388 -0.2592
   66HFI     C3 1276   3.303   3.104   0.867 -0.2926  0.3108  0.0570
   66HFI     F4 1277   3.210   3.065   0.778  0.5112  0.1534  0.2938
   66HFI     F5 1278   3.421   3.062   0.820  0.0388 -0.2464  0.0056
   66HFI     F6 1279   3.304   3.237   0.863 -0.6908  0.2569  0.1849
   66HFI     H1 1280   3.154   3.186   1.053 -0.8258  0.8942 -0.1567
   66HFI     H2 1281   3.274   2.935   0.995  0.7562  0.3923 -2.3764
   67HFI     O1 1282   2.272   3.314   3.568 -0.4312 -0.0631  0.0053
   67HFI     C1 1283   2.359   3.309   3.451  0.6858 -0.3645  0.0345
   67HFI     C2 1284   2.414   3.455   3.434 -0.8537  0.2391  0.0367
   67HFI     F1 1285   2.486   3.464   3.315 -0.6141  0.1852  0.2408
   67HFI     F2 1286   2.501   3.491   3.532 -0.6134 -0.2696 -0.2249
   67HFI     F3 1287   2.312   3.542   3.425 -0.0460 -0.6419  0.5639
   67HFI     C3 1288   2.289   3.251   3.330  0.2434 -0.2094  0.0007
   67HFI     F4 1289   2.179   3.321   3.302 -0.1504  0.0580  0.4753
   67HFI     F5 1290   2.254   3.121   3.358  0.2939 -0.0120 -0.2815
   67HFI     F6 1291   2.368   3.248   3.221  0.1620 -0.1311 -0.1708
   67HFI     H1 1292   2.193   3.369   3.552  0.2736  1.0251  0.1932
   67HFI     H2 1293   2.438   3.233   3.465 -1.7016 -2.7545  0.9048
   68HFI     O1 1294   1.870   2.311   0.137  0.2846  0.0892 -0.4006
   68HFI     C1 1295   1.900   2.279   0.000 -0.3626  0.2943 -0.0560
   68HFI     C2 1296   2.003   2.153  -0.012  0.0673 -0.0535  0.3195
   68HFI     F1 1297   1.959   2.051   0.067 -0.1006 -0.7608 -0.2253
   68HFI     F2 1298   2.125   2.183   0.030 -0.3251 -0.0766 -0.0671
   68HFI     F3 1299   2.017   2.114  -0.139  0.2378 -0.0024 -0.0761
   68HFI     C3 1300   1.965   2.408  -0.073  0.7873 -0.3907 -0.1405
   68HFI     F4 1301   1.877   2.499  -0.099  1.1234 -0.4646  0.1029
   68HFI     F5 1302   2.017   2.369  -0.187 -0.0777 -0.0079  0.2141
   68HFI     F6 1303   2.066   2.463  -0.001  0.7810 -0.3190 -0.6557
   68HFI     H1 1304   1.813   2.390   0.131  0.9192  0.5202 -0.8651
   68HFI     H2 1305   1.807   2.253  -0.051  0.6722  0.5813 -2.1297
   69HFI     O1 1306   2.983   2.393   3.705 -0.0726 -0.4206 -0.6965
   69HFI     C1 1307   3.025   2.259   3.688 -0.4312 -0.0677 -0.3827
   69HFI     C2 1308   2.906   2.175   3.650  0.9396  0.1698  0.1729
   69HFI     F1 1309   2.852   2.215   3.532 -0.0261 -0.1649 -0.2166
   69HFI     F2 1310   2.806   2.169   3.735 -0.2889  0.1887 -0.0989
   69HFI     F3 1311   2.952   2.055   3.624 -0.5343  0.2507 -0.1219
   69HFI     C3 1312   3.112   2.216   3.806 -0.4992  0.4022 -0.0509
   69HFI     F4 1313   3.226   2.287   3.815 -0.2304 -0.1112  0.2467
   69HFI     F5 1314   3.145   2.089   3.776 -0.6082  0.3606  0.5030
   69HFI     F6 1315   3.052   2.224   3.925 -0.4189 -0.9241 -0.5228
   69HFI     H1 1316   2.950   2.428   3.620 -1.1066  0.1141 -0.0947
   69HFI     H2 1317   3.091   2.253   3.600  0.4075  0.7241  0.1843
   70HFI     O1 1318   0.715   0.108   0.384  0.4635 -0.4002  0.1105
   70HFI     C1 1319   0.607   0.146   0.474 -0.1181 -0.2032 -0.2238
   70HFI     C2 1320   0.651   0.254   0.570  0.3441 -0.0569  0.1709
   70HFI     F1 1321   0.553   0.317   0.630  0.0520 -0.0293 -0.3122
   70HFI     F2 1322   0.723   0.356   0.505 -0.1291 -0.4959 -0.4713
   70HFI     F3 1323   0.732   0.198   0.661  0.0482 -0.3317  0.0796
   70HFI     C3 1324   0.526   0.035   0.531 -0.0494  0.4063  0.6471
   70HFI     F4 1325   0.590  -0.031   0.629 -0.6980 -0.6562  0.2414
   70HFI     F5 1326   0.507  -0.050   0.433  0.2904 -0.4220 -0.1740
   70HFI     F6 1327   0.402   0.067   0.585 -0.0339  0.3615  0.1001
   70HFI     H1 1328   0.690   0.024   0.340  1.5258 -0.2790 -0.7558
   70HFI     H2 1329   0.534   0.200   0.411 -1.7082 -1.6822  0.3220
   71HFI     O1 1330   0.769   1.640   3.294  0.1529 -0.2133 -0.1369
   71HFI     C1 1331   0.731   1.508   3.261 -0.1565  0.5053  0.2690
   71HFI     C2 1332   0.617   1.450   3.350  0.0485  0.2693  0.5520
   71HFI     F1 1333   0.514   1.541   3.360 -0.6676  0.0008  0.1148
   71HFI     F2 1334   0.656   1.419   3.472 -0.1228  0.4469  0.0184
   71HFI     F3 1335   0.563   1.344   3.296 -0.8572  0.0138  0.2306
   71HFI     C3 1336   0.856   1.419   3.253  0.1272  0.1230  0.1036
   71HFI     F4 1337   0.827   1.282   3.235 -0.1689 -0.0751 -0.4287
   71HFI     F5 1338   0.921   1.426   3.371 -0.1995 -0.1088 -0.2651
   71HFI     F6 1339   0.940   1.458   3.149  0.1848  0.2441  0.2795
   71HFI     H1 1340   0.863   1.648   3.316  0.5193 -1.8662 -1.0394
   71HFI     H2 1341   0.686   1.505   3.161  2.0087  3.1788 -0.8291
   72HFI     O1 1342   3.194   1.743   1.326 -0.2083 -1.0236 -0.0924
   72HFI     C1 1343   3.098   1.644   1.363 -0.4670  0.2478 -0.0436
   72HFI     C2 1344   3.082   1.630   1.519  0.5503  0.2103  0.4235
   72HFI     F1 1345   3.203   1.618   1.581  0.2149  0.5860 -0.5992
   72HFI     F2 1346   2.999   1.527   1.549  0.8884 -0.4350  0.1138
   72HFI     F3 1347   3.011   1.737   1.571  0.0288  0.2470  0.0758
   72HFI     C3 1348   3.137   1.503   1.300 -0.4397  0.4093 -0.2058
   72HFI     F4 1349   3.030   1.425   1.302 -0.2857  0.6044 -0.4107
   72HFI     F5 1350   3.238   1.445   1.368  0.1360  0.2200 -0.0469
   72HFI     F6 1351   3.182   1.521   1.174  0.0056  0.7092  0.2027
   72HFI     H1 1352   3.271   1.733   1.384 -0.5371  1.6380  0.8355
   72HFI     H2 1353   3.004   1.672   1.314 -0.8493 -1.8586 -0.5552
   73HFI     O1 1354   3.007   2.318   0.416 -0.2598  0.3639 -0.3725
   73HFI     C1 1355   2.876   2.336   0.466  0.0272 -0.8764 -0.6194
   73HFI     C2 1356   2.884   2.327   0.619  0.5188  0.4991  0.0702
   73HFI     F1 1357   2.925   2.213   0.660 -0.2799 -0.1338  0.2040
   73HFI     F2 1358   2.752   2.348   0.668  0.4050  0.3854  0.5830
   73HFI     F3 1359   2.968   2.422   0.669 -0.2770  0.1253  0.1119
   73HFI     C3 1360   2.774   2.244   0.385  0.3951  0.2990 -0.2891
   73HFI     F4 1361   2.806   2.243   0.251 -0.6941  0.3869  0.2022
   73HFI     F5 1362   2.651   2.284   0.414 -0.6445  0.0466  0.2284
   73HFI     F6 1363   2.791   2.121   0.428 -0.1412  0.2011  0.4592
   73HFI     H1 1364   3.003   2.273   0.329 -0.5820  3.5786 -2.1037
   73HFI     H2 1365   2.847   2.439   0.444 -0.6010 -0.8469  0.3229
   74HFI     O1 1366   2.548   3.130   2.467 -0.3967  0.8174 -0.2343
   74HFI     C1 1367   2.657   3.086   2.392 -0.3895  0.4204 -0.7236
   74HFI     C2 1368   2.716   3.208   2.322  0.9151 -0.0082  0.8441
   74HFI     F1 1369   2.826   3.178   2.245 -0.0500  0.3647  0.1403
   74HFI     F2 1370   2.754   3.304   2.413 -0.3559  0.1011  0.6618
   74HFI     F3 1371   2.627   3.269   2.238  0.2055  0.3218 -0.1732
   74HFI     C3 1372   2.617   2.966   2.299  0.1640 -0.7797  0.7203
   74HFI     F4 1373   2.512   3.004   2.218  0.2480  0.3197  0.5421
   74HFI     F5 1374   2.580   2.856   2.370  0.3097  0.0807  0.2967
   74HFI     F6 1375   2.723   2.933   2.225  0.1194  0.3053 -0.4968
   74HFI     H1 1376   2.581   3.201   2.526  1.2266  0.1081 -0.2779
   74HFI     H2 1377   2.734   3.050   2.461 -0.8434 -0.8741 -0.8908
   75HFI     O1 1378   2.550   0.485   1.351 -0.1490  0.1696  0.5043
   75HFI     C1 1379   2.616   0.391   1.447  0.4361  0.5165 -0.1631
   75HFI     C2 1380   2.758   0.370   1.399  0.2688 -0.9181 -1.1738
   75HFI     F1 1381   2.816   0.492   1.383 -0.5144  0.1981  0.0474
   75HFI     F2 1382   2.753   0.308   1.280  0.1040 -0.2469  0.4482
   75HFI     F3 1383   2.832   0.302   1.485 -0.3143  0.3264  0.3242
   75HFI     C3 1384   2.538   0.261   1.482 -0.9741 -0.1418  0.0217
   75HFI     F4 1385   2.551   0.169   1.376 -0.5842 -0.1763 -0.9088
   75HFI     F5 1386   2.409   0.276   1.490  0.5389 -0.1218  0.0085
   75HFI     F6 1387   2.584   0.208   1.596 -0.2191  0.3687 -0.3712
   75HFI     H1 1388   2.544   0.442   1.264  0.3381  0.4779  0.3126
   75HFI     H2 1389   2.626   0.443   1.543 -0.0938  1.7956 -0.7867
   76HFI     O1 1390   3.164   2.292   0.881  0.1454 -0.0273  0.0352
   76HFI     C1 1391   3.157   2.386   0.991 -0.1441 -0.1046 -0.1179
   76HFI     C2 1392   3.275   2.377   1.094  0.2133  0.1097 -0.3189
   76HFI     F1 1393   3.390   2.354   1.026 -0.1197 -0.3508 -0.0285
   76HFI     F2 1394   3.265   2.285   1.193  0.0873 -0.0534 -0.4919
   76HFI     F3 1395   3.292   2.494   1.159 -0.1911  0.1696 -0.4597
   76HFI     C3 1396   3.016   2.376   1.050 -0.2682 -1.0617 -0.2790
   76HFI     F4 1397   2.920   2.390   0.952  0.3478  0.1147 -0.1390
   76HFI     F5 1398   3.001   2.477   1.141 -0.0284  0.2827 -0.2755
   76HFI     F6 1399   2.998   2.260   1.116 -0.7184 -0.7384 -0.4114
   76HFI     H1 1400   3.229   2.331   0.821  0.4257  2.6835  1.9979
   76HFI     H2 1401   3.162   2.483   0.941  1.3864 -1.0085 -1.7308
   77HFI     O1 1402   0.311   0.656   2.954 -0.3573 -0.1325 -0.4473
   77HFI     C1 1403   0.425   0.637   2.864  0.5030 -0.1253  0.6765
   77HFI     C2 1404   0.406   0.731   2.743  0.4762 -0.2392  0.2764
   77HFI     F1 1405   0.511   0.718   2.667  0.2731  0.4702  0.0853
   77HFI     F2 1406   0.400   0.860   2.782 -0.2097 -0.3460 -0.9776
   77HFI     F3 1407   0.301   0.708   2.665 -0.0472  0.2096 -0.4920
   77HFI     C3 1408   0.464   0.487   2.831  0.5455 -0.4347 -0.1067
   77HFI     F4 1409   0.593   0.482   2.795  0.4339  0.1519  0.0599
   77HFI     F5 1410   0.390   0.430   2.726 -0.4316  0.4488 -0.2473
   77HFI     F6 1411   0.450   0.401   2.930 -1.0211 -0.3147 -0.3640
   77HFI     H1 1412   0.271   0.569   2.972 -0.0062 -0.4651 -1.2191
   77HFI     H2 1413   0.515   0.680   2.910  0.5968 -0.6197  0.9535
   78HFI     O1 1414   1.661   2.751   1.041 -0.1577 -0.3221 -0.5141
   78HFI     C1 1415   1.661   2.609   0.988  0.8404  0.5207  0.7138
   78HFI     C2 1416   1.790   2.529   1.016  0.3040  0.3613 -0.2474
   78HFI     F1 1417   1.900   2.565   0.948  0.5046 -0.3693 -0.5656
   78HFI     F2 1418   1.775   2.396   0.973  0.2076 -0.0981  0.5709
   78HFI     F3 1419   1.831   2.534   1.149  0.5913  0.2709  0.6560
   78HFI     C3 1420   1.615   2.591   0.843  1.0130  0.0098  0.3376
   78HFI     F4 1421   1.707   2.618   0.749 -0.0422  0.0340  0.2432
   78HFI     F5 1422   1.518   2.682   0.816 -0.4120  0.1260  0.4465
   78HFI     F6 1423   1.562   2.471   0.825  0.3966  0.1221 -0.0396
   78HFI     H1 1424   1.748   2.793   1.031  0.7928 -2.2681 -0.6682
   78HFI     H2 1425   1.585   2.552   1.042 -1.2102 -0.4050 -2.9613
   79HFI     O1 1426   2.135   2.084   0.859 -0.6917  0.3757  0.5598
   79HFI     C1 1427   2.012   2.110   0.944 -0.4313  0.1122 -0.0155
   79HFI     C2 1428   2.042   2.159   1.091  0.0996 -0.0390 -0.3622
   79HFI     F1 1429   2.076   2.060   1.170  0.1424 -0.7307  0.1031
   79HFI     F2 1430   1.932   2.214   1.141  0.0552 -0.1474  0.4440
   79HFI     F3 1431   2.144   2.244   1.095 -0.0122  0.3807  0.1443
   79HFI     C3 1432   1.915   1.983   0.934 -0.4598 -0.7178  0.0486
   79HFI     F4 1433   1.796   2.000   0.994  0.5156  0.0849 -0.2914
   79HFI     F5 1434   1.967   1.880   0.996 -0.0087  0.2777  0.2965
   79HFI     F6 1435   1.892   1.961   0.805  0.3906  0.1914 -0.2918
   79HFI     H1 1436   2.195   2.018   0.897 -1.0020  0.1656  0.6941
   79HFI     H2 1437   1.952   2.189   0.897 -1.6982  1.0686  3.0864
   80HFI     O1 1438   2.156   2.572   1.374 -0.0459 -0.7218  0.3713
   80HFI     C1 1439   2.054   2.475   1.418 -0.4890 -0.9658 -0.5996
   80HFI     C2 1440   1.938   2.548   1.487  0.0822  0.4671  0.3525
   80HFI     F1 1441   1.827   2.475   1.508 -0.3599 -0.0849  0.0130
   80HFI     F2 1442   1.903   2.646   1.403  0.8916  0.0070 -0.1356
   80HFI     F3 1443   1.968   2.598   1.605  0.0714 -0.0420  0.0607
   80HFI     C3 1444   2.119   2.354   1.500 -0.1925 -0.7125 -0.5683
   80HFI     F4 1445   2.225   2.310   1.436 -0.5922  0.1795 -0.4980
   80HFI     F5 1446   2.032   2.256   1.524  0.2210 -0.0509  0.0963
   80HFI     F6 1447   2.164   2.396   1.626 -0.3881  0.7045  0.0560
   80HFI     H1 1448   2.231   2.518   1.344 -1.2432 -1.7405 -0.8536
   80HFI     H2 1449   2.002   2.430   1.333 -0.3783 -0.8397 -0.7341
   81HFI     O1 1450   2.837   0.684   0.770 -0.0923  0.1081 -0.2736
   81HFI     C1 1451   2.748   0.573   0.801  0.2191 -0.1254 -0.1044
   81HFI     C2 1452   2.724   0.552   0.954 -0.4694 -0.3943  0.1525
   81HFI     F1 1453   2.679   0.671   1.005 -0.3093  0.6836 -0.1979
   81HFI     F2 1454   2.841   0.522   1.009  0.0871  0.0236  0.3948
   81HFI     F3 1455   2.633   0.451   0.987 -0.1217 -0.3974  0.4565
   81HFI     C3 1456   2.798   0.445   0.731 -0.1502 -0.1873 -0.5320
   81HFI     F4 1457   2.708   0.353   0.746 -0.2270  0.3173 -0.0567
   81HFI     F5 1458   2.916   0.399   0.785  0.1261 -0.2281  0.0727
   81HFI     F6 1459   2.814   0.459   0.599 -0.2781 -0.1236 -0.0015
   81HFI     H1 1460   2.925   0.654   0.797  0.2255 -0.0285 -1.4291
   81HFI     H2 1461   2.647   0.595   0.763 -0.4598 -0.5298  1.4214
   82HFI     O1 1462   1.535   1.246   0.104  0.2293  0.7435 -0.6156
   82HFI     C1 1463   1.611   1.227   0.222 -0.0440 -0.2248 -0.4555
   82HFI     C2 1464   1.554   1.307   0.343  0.3177 -0.6614  0.0985
   82HFI     F1 1465   1.429   1.278   0.365 -0.0686 -0.4810  0.0819
   82HFI     F2 1466   1.558   1.443   0.313  0.0973  0.0722  0.5916
   82HFI     F3 1467   1.628   1.292   0.450  0.1591 -0.3889  0.2706
   82HFI     C3 1468   1.764   1.244   0.202 -0.2970 -0.6422 -0.2754
   82HFI     F4 1469   1.802   1.173   0.092 -0.2600 -0.1173 -0.2731
   82HFI     F5 1470   1.832   1.185   0.305 -0.2457  0.0328  0.3490
   82HFI     F6 1471   1.803   1.373   0.194 -0.5439 -0.1161  0.4320
   82HFI     H1 1472   1.541   1.341   0.085  0.9622  0.4876 -1.7255
   82HFI     H2 1473   1.605   1.124   0.260  1.3288 -0.1803 -0.0559
   83HFI     O1 1474   1.941   2.858   1.081 -0.6192 -0.0561 -0.1619
   83HFI     C1 1475   1.955   2.963   0.982  0.3025 -0.2696  0.4813
   83HFI     C2 1476   2.081   2.947   0.899  0.5716  0.2688  0.3348
   83HFI     F1 1477   2.088   3.028   0.796 -0.1912  1.0056  0.3198
   83HFI     F2 1478   2.094   2.820   0.850 -0.9639  0.2412  0.4766
   83HFI     F3 1479   2.201   2.963   0.966  0.0410  0.1057  0.2904
   83HFI     C3 1480   1.933   3.100   1.044 -0.5135  0.3860 -0.0127
   83HFI     F4 1481   1.894   3.188   0.950 -0.8069 -0.8448 -0.2139
   83HFI     F5 1482   2.040   3.151   1.104  0.3237 -0.0960  0.2301
   83HFI     F6 1483   1.828   3.089   1.137 -0.2550  0.1775  0.2520
   83HFI     H1 1484   2.008   2.865   1.151 -0.2303  1.2423 -0.6486
   83HFI     H2 1485   1.874   2.944   0.910 -1.4986  0.6131  2.2489
   84HFI     O1 1486   1.447   2.102   3.426 -0.9186 -0.1648  0.5233
   84HFI     C1 1487   1.583   2.119   3.364 -0.4451 -0.1911 -0.3324
   84HFI     C2 1488   1.691   2.169   3.469  0.1612 -0.1272  0.0463
   84HFI     F1 1489   1.817   2.163   3.430 -0.1692 -0.8484 -0.6957
   84HFI     F2 1490   1.691   2.088   3.574 -0.2971 -0.0986 -0.0898
   84HFI     F3 1491   1.659   2.297   3.513  0.5568 -0.7764 -0.2872
   84HFI     C3 1492   1.573   2.208   3.232  0.3495 -0.6481 -0.3553
   84HFI     F4 1493   1.504   2.321   3.252 -0.0116  0.2689  0.3485
   84HFI     F5 1494   1.495   2.132   3.140 -0.2088 -0.3826 -0.1092
   84HFI     F6 1495   1.695   2.235   3.184 -0.2001 -0.4276 -0.2818
   84HFI     H1 1496   1.420   2.189   3.461  1.0822 -0.4526  2.9122
   84HFI     H2 1497   1.627   2.030   3.316  0.5811  0.6558 -0.9805
   85HFI     O1 1498   2.275   3.385   0.590  0.5055  0.6020  0.3716
   85HFI     C1 1499   2.160   3.302   0.614 -1.1102 -0.0112 -0.2672
   85HFI     C2 1500   2.124   3.230   0.476 -0.7373  0.5687 -0.6841
   85HFI     F1 1501   2.079   3.315   0.379 -0.4186  0.0411 -0.0918
   85HFI     F2 1502   2.031   3.136   0.495 -0.5432  0.0297  0.5368
   85HFI     F3 1503   2.226   3.168   0.426  0.0330 -0.5080  0.2509
   85HFI     C3 1504   2.041   3.374   0.687 -0.9288 -0.0796  0.6525
   85HFI     F4 1505   2.003   3.493   0.630 -0.5751  0.0948  0.0546
   85HFI     F5 1506   2.088   3.403   0.808  0.4032 -0.2494  0.1433
   85HFI     F6 1507   1.931   3.304   0.692  0.4186 -0.4383  0.1733
   85HFI     H1 1508   2.250   3.479   0.588 -0.7543  0.2828  0.6514
   85HFI     H2 1509   2.187   3.220   0.682 -0.5125 -0.9725 -1.6359
   86HFI     O1 1510   2.171   1.166   1.281  0.3676 -0.2048 -0.2409
   86HFI     C1 1511   2.118   1.242   1.389  0.0879  0.0516  0.4399
   86HFI     C2 1512   2.214   1.272   1.503  0.1252 -0.4417  0.1027
   86HFI     F1 1513   2.322   1.341   1.457  0.1119  0.4738  0.4756
   86HFI     F2 1514   2.256   1.153   1.560 -0.1552 -0.0405 -0.7194
   86HFI     F3 1515   2.162   1.347   1.598  0.6879  0.2475 -0.0113
   86HFI     C3 1516   1.979   1.189   1.439  0.1463  0.0798  0.1305
   86HFI     F4 1517   1.904   1.169   1.335 -0.1145 -0.1359 -0.5236
   86HFI     F5 1518   1.914   1.271   1.522 -0.2366 -0.2384  0.1358
   86HFI     F6 1519   1.983   1.073   1.507  0.2478  0.3624  0.3149
   86HFI     H1 1520   2.184   1.076   1.317 -1.9668 -1.0887 -1.4812
   86HFI     H2 1521   2.094   1.342   1.352  0.5160 -0.5884 -1.6298
   87HFI     O1 1522   2.169   2.921   0.077 -0.4107 -0.3615  0.4255
   87HFI     C1 1523   2.193   2.964  -0.060  0.8285 -0.3592  0.2750
   87HFI     C2 1524   2.069   2.934  -0.149 -0.1634  0.1108  0.1439
   87HFI     F1 1525   2.093   2.969  -0.281 -0.2571 -0.0972  0.1254
   87HFI     F2 1526   1.969   3.007  -0.101 -0.2780  0.1162  0.0190
   87HFI     F3 1527   2.038   2.805  -0.145  0.1403  0.1912  0.4341
   87HFI     C3 1528   2.324   2.908  -0.126 -0.0591 -0.6722  0.3468
   87HFI     F4 1529   2.298   2.791  -0.195  0.2250  0.1778  0.3342
   87HFI     F5 1530   2.420   2.883  -0.032 -0.4717 -0.2007  0.1318
   87HFI     F6 1531   2.379   2.996  -0.214  0.1089  0.5405  0.5893
   87HFI     H1 1532   2.171   2.824   0.068 -0.6526 -0.3372  0.1403
   87HFI     H2 1533   2.201   3.074  -0.060  0.4153 -0.3274 -0.6264
   88HFI     O1 1534   0.801   2.789   1.031  0.3537  0.4731  0.0337
   88HFI     C1 1535   0.839   2.815   0.888  0.5337 -0.6029 -0.1326
   88HFI     C2 1536   0.964   2.907   0.874 -0.1231 -0.1019  1.0297
   88HFI     F1 1537   0.933   3.036   0.907 -0.2140  0.2697  0.1874
   88HFI     F2 1538   1.030   2.896   0.752  0.4600  0.0952  0.3719
   88HFI     F3 1539   1.054   2.869   0.961 -0.2061 -0.3805  0.2772
   88HFI     C3 1540   0.718   2.885   0.823 -1.1289 -0.0524 -0.2732
   88HFI     F4 1541   0.660   2.982   0.897 -0.0358 -0.2047 -0.3531
   88HFI     F5 1542   0.620   2.796   0.789  0.1049  0.0636  0.2901
   88HFI     F6 1543   0.756   2.931   0.701  0.4628  0.0526 -0.1200
   88HFI     H1 1544   0.764   2.867   1.075  0.8027 -0.1862  1.6570
   88HFI     H2 1545   0.852   2.723   0.830  3.3112 -0.8047  0.7325
   89HFI     O1 1546   1.584   3.011   0.059 -0.2646 -0.8561 -0.6764
   89HFI     C1 1547   1.545   3.120   0.150  0.8276  0.0130 -0.0772
   89HFI     C2 1548   1.419   3.196   0.100  0.3509 -0.0044  0.1300
   89HFI     F1 1549   1.444   3.235  -0.033  0.4114 -0.0158  0.0219
   89HFI     F2 1550   1.388   3.310   0.174 -0.8652  0.0240 -0.2032
   89HFI     F3 1551   1.317   3.112   0.105 -0.9025  0.1959  0.1662
   89HFI     C3 1552   1.665   3.214   0.191 -0.1129 -0.3339 -0.0742
   89HFI     F4 1553   1.629   3.280   0.295  0.3818 -0.4000 -0.0204
   89HFI     F5 1554   1.683   3.297   0.083  0.0926  0.0768  0.1148
   89HFI     F6 1555   1.782   3.152   0.213 -0.0660  0.1603 -0.1373
   89HFI     H1 1556   1.520   2.995  -0.012  0.1875 -1.7900 -0.8711
   89HFI     H2 1557   1.527   3.066   0.244 -0.3764 -0.0745 -0.3456
   90HFI     O1 1558   2.906   0.039   1.108  0.3182  0.3168 -0.7214
   90HFI     C1 1559   3.014   0.090   1.026 -0.9281  0.1668 -0.0606
   90HFI     C2 1560   3.017   0.031   0.883 -0.1225  0.2332 -0.4726
   90HFI     F1 1561   3.023  -0.107   0.893 -0.1461 -0.4267  0.5732
   90HFI     F2 1562   3.121   0.079   0.804 -0.3991  0.1101  0.3419
   90HFI     F3 1563   2.906   0.070   0.821  0.1887  0.3085 -0.0528
   90HFI     C3 1564   3.151   0.062   1.104 -0.5088 -0.2399 -0.0008
   90HFI     F4 1565   3.188  -0.062   1.093 -0.3906 -0.2260  0.3702
   90HFI     F5 1566   3.142   0.092   1.235 -0.2496 -0.2257  0.7653
   90HFI     F6 1567   3.253   0.134   1.056 -0.0654  0.6098  0.1190
   90HFI     H1 1568   2.828   0.033   1.051 -0.7863 -1.3229  0.9151
   90HFI     H2 1569   3.009   0.199   1.010  2.6043  0.2253 -1.4081
   91HFI     O1 1570   2.911   2.273   2.935  0.3661 -0.4148  0.2320
   91HFI     C1 1571   3.015   2.251   2.837  0.3562  0.0428 -0.0182
   91HFI     C2 1572   2.973   2.322   2.697 -0.5763  0.6280 -0.4461
   91HFI     F1 1573   2.873   2.245   2.643 -0.0093  0.1646  0.2632
   91HFI     F2 1574   3.082   2.340   2.616  0.1955 -0.0699  0.4551
   91HFI     F3 1575   2.925   2.442   2.723  0.1405 -0.1199 -0.1698
   91HFI     C3 1576   3.043   2.100   2.825 -0.9791 -0.1530  0.4640
   91HFI     F4 1577   2.931   2.032   2.799  0.1355  0.4028 -0.2784
   91HFI     F5 1578   3.094   2.057   2.936  0.2743  0.0114 -0.2670
   91HFI     F6 1579   3.132   2.073   2.730  0.6885  0.3686 -0.3152
   91HFI     H1 1580   2.827   2.282   2.887  0.7245 -1.5623 -0.6355
   91HFI     H2 1581   3.112   2.293   2.868 -0.4439  2.0166 -0.1116
   92HFI     O1 1582   1.033   1.302   1.470 -0.3651  0.0405  0.1798
   92HFI     C1 1583   1.032   1.428   1.535  0.3686 -1.1077  0.3739
   92HFI     C2 1584   0.893   1.495   1.507  0.1030 -0.1753  0.1851
   92HFI     F1 1585   0.792   1.417   1.541 -0.1006 -0.1578  0.0881
   92HFI     F2 1586   0.884   1.524   1.371 -0.2725 -0.1954 -0.4528
   92HFI     F3 1587   0.881   1.610   1.569  0.0112 -0.5864  0.8290
   92HFI     C3 1588   1.166   1.508   1.509  0.4168 -0.2668 -0.2649
   92HFI     F4 1589   1.278   1.429   1.530 -0.7501  0.1347 -0.1552
   92HFI     F5 1590   1.171   1.617   1.588 -0.4512  0.4044 -0.0802
   92HFI     F6 1591   1.170   1.545   1.377 -0.1723 -0.0443 -0.3556
   92HFI     H1 1592   1.056   1.311   1.376 -3.5366 -0.5808 -0.7131
   92HFI     H2 1593   1.035   1.410   1.644 -1.1457  0.8365  0.7714
   93HFI     O1 1594   2.370   2.694   0.388  0.5422  0.1235  0.6403
   93HFI     C1 1595   2.442   2.728   0.512  0.2350 -0.2439 -0.2598
   93HFI     C2 1596   2.488   2.876   0.519  0.1425  0.0222 -0.4364
   93HFI     F1 1597   2.413   2.963   0.444 -0.3460 -0.7046  0.3657
   93HFI     F2 1598   2.613   2.894   0.473 -0.0043 -0.1621  0.0462
   93HFI     F3 1599   2.476   2.916   0.645  0.6098  0.0881 -0.2535
   93HFI     C3 1600   2.559   2.622   0.530 -0.3349 -0.3276  0.1429
   93HFI     F4 1601   2.631   2.611   0.418  0.4897  0.0949  0.1844
   93HFI     F5 1602   2.509   2.503   0.564 -0.2197  0.9089  0.4434
   93HFI     F6 1603   2.643   2.658   0.632  0.3207  0.2104 -0.4293
   93HFI     H1 1604   2.422   2.724   0.312  2.9024  0.6785  2.4170
   93HFI     H2 1605   2.376   2.721   0.599  1.1029 -1.4247  0.3305
   94HFI     O1 1606   0.448   0.112   0.855 -0.3573  0.2116  0.1208
   94HFI     C1 1607   0.342   0.023   0.906 -0.2804 -0.0683 -0.3427
   94HFI     C2 1608   0.243   0.099   1.001  0.5246 -0.4453 -0.4671
   94HFI     F1 1609   0.152   0.176   0.937  0.0001 -0.2864  0.4613
   94HFI     F2 1610   0.321   0.180   1.079  0.2568 -0.5685 -0.2037
   94HFI     F3 1611   0.169   0.016   1.082 -0.0761 -0.2015  0.2642
   94HFI     C3 1612   0.398  -0.114   0.946 -0.2117  0.1884 -0.0273
   94HFI     F4 1613   0.450  -0.174   0.832 -0.0240 -0.3028  0.2774
   94HFI     F5 1614   0.305  -0.195   0.998 -1.0519 -0.0467  0.1964
   94HFI     F6 1615   0.493  -0.101   1.033 -0.0402 -0.4649  0.1383
   94HFI     H1 1616   0.503   0.133   0.932  2.4279 -0.1062 -1.7299
   94HFI     H2 1617   0.282  -0.006   0.818  3.4461 -1.4981 -2.5229
   95HFI     O1 1618   0.846   2.254   3.577  1.1760  0.3538 -0.2144
   95HFI     C1 1619   0.967   2.346   3.579  1.2207 -0.2090 -0.3522
   95HFI     C2 1620   1.103   2.273   3.555  0.8488 -0.3687  0.2951
   95HFI     F1 1621   1.091   2.155   3.613  0.1870 -0.1091 -1.2253
   95HFI     F2 1622   1.209   2.338   3.601  0.1915  0.8950  0.4557
   95HFI     F3 1623   1.120   2.243   3.421 -0.4008 -0.3164  0.4680
   95HFI     C3 1624   0.964   2.426   3.711  0.0979  0.0614 -0.9018
   95HFI     F4 1625   0.846   2.485   3.735  0.0219  0.3347  0.4345
   95HFI     F5 1626   1.050   2.531   3.707 -0.0579  0.3684  0.3306
   95HFI     F6 1627   0.989   2.358   3.826  0.1513  0.0379  0.2286
   95HFI     H1 1628   0.883   2.165   3.582  0.3384  0.0405  0.4266
   95HFI     H2 1629   0.956   2.433   3.513  2.0453  2.1770  2.5471
   96HFI     O1 1630   0.951   0.485   3.744 -0.2458  0.1509 -0.3355
   96HFI     C1 1631   0.799   0.488   3.734 -0.7371 -0.0419  0.3753
   96HFI     C2 1632   0.735   0.556   3.861  0.6215 -0.0536  0.0493
   96HFI     F1 1633   0.770   0.686   3.859 -0.0378 -0.1932 -0.1236
   96HFI     F2 1634   0.790   0.508   3.977 -0.0268  0.0185 -0.1284
   96HFI     F3 1635   0.600   0.546   3.856  0.1858  0.1261 -0.1465
   96HFI     C3 1636   0.739   0.348   3.709  0.2756 -0.3630  0.3793
   96HFI     F4 1637   0.607   0.362   3.658 -0.2610 -0.3495  0.1855
   96HFI     F5 1638   0.733   0.274   3.820 -0.0408 -0.9020  0.6153
   96HFI     F6 1639   0.808   0.276   3.622  0.3271 -0.1709 -0.0603
   96HFI     H1 1640   0.972   0.458   3.835  0.9293  0.2006 -0.5835
   96HFI     H2 1641   0.774   0.552   3.648  0.5384 -0.2514 -0.1625
   97HFI     O1 1642   1.564   1.961   1.457  0.3942  0.4141  0.1546
   97HFI     C1 1643   1.665   2.026   1.537  0.1771 -0.1649  0.2025
   97HFI     C2 1644   1.689   2.183   1.505  0.6989  0.1143 -0.2342
   97HFI     F1 1645   1.756   2.190   1.388 -0.2822  0.0256 -0.1734
   97HFI     F2 1646   1.749   2.247   1.602  0.0976 -0.1280 -0.0419
   97HFI     F3 1647   1.575   2.248   1.487 -0.0353  0.2090  0.1255
   97HFI     C3 1648   1.794   1.946   1.527 -0.3096  0.5546 -0.5076
   97HFI     F4 1649   1.896   2.000   1.592  0.2442  0.1311 -0.1001
   97HFI     F5 1650   1.837   1.935   1.397 -0.0808  0.0030 -0.4363
   97HFI     F6 1651   1.775   1.820   1.577 -0.7186  0.1278 -0.7634
   97HFI     H1 1652   1.600   1.952   1.367  0.8354 -0.3191  0.4003
   97HFI     H2 1653   1.644   2.009   1.643  2.1085 -1.1135  0.4689
   98HFI     O1 1654   0.836   2.464   1.012  0.1347  0.6767  0.0431
   98HFI     C1 1655   0.959   2.393   0.988 -0.5557  0.3721 -0.6888
   98HFI     C2 1656   1.071   2.432   1.090 -0.4823 -0.0576  0.4027
   98HFI     F1 1657   1.009   2.513   1.179 -0.1111  0.6060  0.0375
   98HFI     F2 1658   1.169   2.508   1.037 -0.6990  0.1667 -0.1470
   98HFI     F3 1659   1.125   2.325   1.151  0.2342 -0.3805  0.3012
   98HFI     C3 1660   0.995   2.414   0.848  0.0576 -0.2926 -0.2606
   98HFI     F4 1661   1.012   2.540   0.816  0.1803 -0.0397  0.0894
   98HFI     F5 1662   0.889   2.366   0.771  0.0973 -0.0210 -0.2202
   98HFI     F6 1663   1.099   2.341   0.809 -0.3987 -0.1060 -0.1492
   98HFI     H1 1664   0.811   2.450   1.105  2.3633 -0.7645  0.4754
   98HFI     H2 1665   0.940   2.286   1.004  0.4556  0.4112  0.8762
   99HFI     O1 1666   1.144   0.300   0.053 -0.2980 -0.0096  0.0583
   99HFI     C1 1667   1.195   0.273  -0.081 -0.1244  0.2320  0.1050
   99HFI     C2 1668   1.197   0.121  -0.106  0.4655  0.0836 -0.2721
   99HFI     F1 1669   1.236   0.093  -0.223 -0.2587  0.0833  0.1495
   99HFI     F2 1670   1.076   0.059  -0.097 -0.1882  0.4720 -0.0704
   99HFI     F3 1671   1.286   0.060  -0.024 -0.6141 -0.4134 -0.3338
   99HFI     C3 1672   1.332   0.339  -0.093 -0.2810  0.0234 -0.1979
   99HFI     F4 1673   1.427   0.274  -0.025  0.5309  0.4477  0.5942
   99HFI     F5 1674   1.341   0.463  -0.049  0.2290  0.1632 -0.5307
   99HFI     F6 1675   1.369   0.339  -0.221 -0.3353 -0.0008  0.0031
   99HFI     H1 1676   1.215   0.269   0.112  0.9396  2.0844 -0.2692
   99HFI     H2 1677   1.128   0.318  -0.156  1.3153  0.6757 -0.9438
  100HFI     O1 1678   0.596   2.317   1.549 -0.2611 -0.0500 -0.4684
  100HFI     C1 1679   0.682   2.438   1.555 -0.6631 -0.5775 -0.1770
  100HFI     C2 1680   0.625   2.573   1.509  0.6398  0.6974 -0.5324
  100HFI     F1 1681   0.492   2.572   1.519 -0.8136  0.0455 -0.2810
  100HFI     F2 1682   0.644   2.589   1.378 -0.4974  0.4445 -0.0472
  100HFI     F3 1683   0.682   2.683   1.574  0.4087  0.9836 -0.2571
  100HFI     C3 1684   0.830   2.402   1.501 -0.0746 -1.2793  0.2867
  100HFI     F4 1685   0.866   2.282   1.542 -0.2577 -0.1467  0.4063
  100HFI     F5 1686   0.925   2.497   1.531  0.3997  0.0693  0.0777
  100HFI     F6 1687   0.829   2.399   1.362  0.0286 -0.8829  0.4060
  100HFI     H1 1688   0.536   2.321   1.472 -2.7230  3.2535  1.4431
  100HFI     H2 1689   0.707   2.461   1.660 -0.5666 -0.3936 -0.2408
  101HFI     O1 1690   3.351   1.949   2.268 -0.3321 -0.3575 -0.2399
  101HFI     C1 1691   3.206   1.908   2.253 -0.9889 -0.1274 -1.2819
  101HFI     C2 1692   3.103   1.991   2.345  0.4321  0.0423 -0.2463
  101HFI     F1 1693   3.113   1.951   2.470  0.2455 -0.2357 -0.1448
  101HFI     F2 1694   2.981   1.964   2.296  0.2442 -0.5303 -0.2851
  101HFI     F3 1695   3.122   2.122   2.337  0.1051 -0.2898 -0.5858
  101HFI     C3 1696   3.189   1.756   2.262 -0.2186  0.3766 -0.4027
  101HFI     F4 1697   3.066   1.718   2.217  0.2262 -0.2927 -0.0486
  101HFI     F5 1698   3.218   1.705   2.387 -0.4217  0.1756 -0.0951
  101HFI     F6 1699   3.271   1.703   2.174 -0.1070  0.7105 -0.5050
  101HFI     H1 1700   3.384   1.912   2.352 -2.6803 -1.2405  0.3413
  101HFI     H2 1701   3.167   1.933   2.154 -1.6121  0.0276 -0.9955
  102HFI     O1 1702   0.790   0.797   3.604 -0.3433 -0.3265 -0.7488
  102HFI     C1 1703   0.891   0.872   3.530 -0.5580 -0.0725 -0.1454
  102HFI     C2 1704   0.844   1.011   3.497  0.3809  0.6022  0.0589
  102HFI     F1 1705   0.806   1.067   3.615  0.4926 -0.7914 -0.4838
  102HFI     F2 1706   0.733   1.026   3.417 -0.2046  0.0226 -0.1021
  102HFI     F3 1707   0.941   1.091   3.448 -0.5486  0.0373 -0.4082
  102HFI     C3 1708   0.938   0.806   3.396 -0.1249 -0.5330 -0.2152
  102HFI     F4 1709   0.832   0.763   3.328  0.1516 -0.3827  0.0231
  102HFI     F5 1710   1.010   0.698   3.425  0.4370  0.5729 -0.3959
  102HFI     F6 1711   1.012   0.889   3.319 -0.4017 -0.0168 -0.0082
  102HFI     H1 1712   0.758   0.858   3.673  1.5140 -0.5147  0.3428
  102HFI     H2 1713   0.982   0.895   3.586 -0.6240 -2.7996  1.1565
  103HFI     O1 1714   1.868   1.235   0.986  0.0155  0.2008  0.7495
  103HFI     C1 1715   1.751   1.176   0.912 -0.1444  0.5449 -1.0063
  103HFI     C2 1716   1.731   1.030   0.947  0.2968  0.2365 -0.1111
  103HFI     F1 1717   1.610   0.981   0.891 -0.3327  0.1841 -0.1618
  103HFI     F2 1718   1.716   1.014   1.086  0.2065 -0.5714  0.1368
  103HFI     F3 1719   1.832   0.947   0.903 -0.1785 -0.0656  0.2584
  103HFI     C3 1720   1.766   1.200   0.760  1.1619  0.0828 -0.3782
  103HFI     F4 1721   1.726   1.328   0.728 -0.1366 -0.2359  0.4077
  103HFI     F5 1722   1.685   1.120   0.689  0.1443 -0.2455 -0.3139
  103HFI     F6 1723   1.895   1.180   0.719  0.1669 -0.1817  0.3842
  103HFI     H1 1724   1.950   1.193   0.954  0.3049  1.5843 -0.3562
  103HFI     H2 1725   1.660   1.228   0.945 -0.3663 -1.0797  1.0365
  104HFI     O1 1726   0.908   1.572   0.384 -0.5291 -0.3294  0.1094
  104HFI     C1 1727   1.047   1.531   0.348 -0.1984 -0.1969  0.1857
  104HFI     C2 1728   1.068   1.402   0.265 -1.1453  0.5745 -0.2489
  104HFI     F1 1729   1.052   1.292   0.341  0.2913  0.6391  0.3200
  104HFI     F2 1730   1.198   1.389   0.214  0.3205 -0.0324  0.4352
  104HFI     F3 1731   0.984   1.397   0.161 -0.3819 -0.1832 -0.1412
  104HFI     C3 1732   1.125   1.518   0.488  0.3040 -0.4716 -0.0280
  104HFI     F4 1733   1.107   1.624   0.566 -0.5753 -0.1634 -0.2563
  104HFI     F5 1734   1.257   1.519   0.478 -0.1963 -0.0095 -0.2245
  104HFI     F6 1735   1.093   1.417   0.563 -0.1305  0.1297  0.6285
  104HFI     H1 1736   0.894   1.577   0.480  1.9124 -0.7529  0.5357
  104HFI     H2 1737   1.092   1.609   0.286  1.6805 -0.4097  1.2367
  105HFI     O1 1738   2.114   0.183   1.572 -0.4718  0.1669 -0.4739
  105HFI     C1 1739   2.054   0.103   1.468  0.4138 -0.6484 -0.2199
  105HFI     C2 1740   2.052  -0.053   1.507 -0.6936  0.0243  0.1217
  105HFI     F1 1741   1.946  -0.074   1.586  0.5837  0.2910  0.3705
  105HFI     F2 1742   2.169  -0.098   1.563  0.1066  0.1079  0.6500
  105HFI     F3 1743   2.036  -0.129   1.395 -0.3398 -0.3989  0.0098
  105HFI     C3 1744   2.111   0.139   1.321 -0.3227  0.3092  0.0596
  105HFI     F4 1745   2.040   0.082   1.221 -0.5263 -0.2084 -0.1088
  105HFI     F5 1746   2.241   0.107   1.313  0.1288 -0.0764  0.4383
  105HFI     F6 1747   2.103   0.278   1.302  0.0340 -0.0937 -0.2578
  105HFI     H1 1748   2.203   0.211   1.544 -0.6992  1.4084 -0.0191
  105HFI     H2 1749   1.948   0.130   1.462  1.0103  2.1451  1.1193
  106HFI     O1 1750   0.248   1.580   0.630  0.1518  0.3437  0.3325
  106HFI     C1 1751   0.362   1.626   0.555 -0.1188  0.5386  0.7987
  106HFI     C2 1752   0.415   1.509   0.476 -0.2877 -0.3709 -0.1195
  106HFI     F1 1753   0.446   1.406   0.554  0.3269  0.1583  0.0636
  106HFI     F2 1754   0.519   1.526   0.394 -0.1957 -0.1960 -0.0317
  106HFI     F3 1755   0.315   1.472   0.394 -0.0898  0.0126  0.1585
  106HFI     C3 1756   0.472   1.695   0.643 -0.3193 -0.4329 -0.6878
  106HFI     F4 1757   0.425   1.805   0.713  0.1599  0.3265  0.2671
  106HFI     F5 1758   0.579   1.735   0.577 -0.5067  0.1826  0.1001
  106HFI     F6 1759   0.519   1.603   0.731  0.3584 -0.4200  0.5661
  106HFI     H1 1760   0.265   1.593   0.725  1.3396  1.0257  0.0241
  106HFI     H2 1761   0.335   1.701   0.480  2.9481  0.6702 -0.2484
  107HFI     O1 1762   2.821   1.074   1.471  0.0102 -0.3026 -0.3289
  107HFI     C1 1763   2.721   0.989   1.533  0.5647  0.1517 -0.6000
  107HFI     C2 1764   2.747   0.842   1.489  1.0016  0.3303 -0.3651
  107HFI     F1 1765   2.877   0.816   1.461 -0.2293  0.1608  0.6260
  107HFI     F2 1766   2.675   0.816   1.378  0.0933 -0.3377 -0.4889
  107HFI     F3 1767   2.702   0.758   1.587  0.1864 -0.2000  0.0513
  107HFI     C3 1768   2.580   1.040   1.507  0.5981  0.0620 -0.3116
  107HFI     F4 1769   2.553   1.046   1.375  0.0378 -0.0847  0.3114
  107HFI     F5 1770   2.564   1.158   1.562 -0.2277  0.5856  0.2450
  107HFI     F6 1771   2.489   0.959   1.564 -0.1562 -0.1538 -0.4898
  107HFI     H1 1772   2.775   1.141   1.417 -0.7864  0.0508  0.7445
  107HFI     H2 1773   2.734   0.995   1.641  0.5243  0.7829 -0.6271
  108HFI     O1 1774   2.044   0.457   0.862 -0.8545  0.6599  0.4545
  108HFI     C1 1775   2.058   0.366   0.744  0.4686 -0.0982 -0.3101
  108HFI     C2 1776   2.214   0.323   0.734 -0.7680 -0.3943 -0.0142
  108HFI     F1 1777   2.227   0.234   0.629  0.4066  0.3437 -0.7122
  108HFI     F2 1778   2.268   0.278   0.848  0.0810 -0.6654  0.0980
  108HFI     F3 1779   2.296   0.422   0.694 -0.9089 -0.4308 -0.5033
  108HFI     C3 1780   1.997   0.424   0.612  0.3192 -0.8721  0.4291
  108HFI     F4 1781   1.999   0.335   0.511  0.0289  0.3233  0.0424
  108HFI     F5 1782   2.063   0.531   0.563  0.2405  0.1992 -0.1699
  108HFI     F6 1783   1.869   0.456   0.641  0.2947  0.1144  0.1050
  108HFI     H1 1784   1.954   0.494   0.864 -1.3283 -0.5045  1.0971
  108HFI     H2 1785   2.003   0.273   0.764  2.6982 -1.4929 -0.5090
  109HFI     O1 1786   1.589   0.945   3.102 -0.3024  0.2643 -0.3253
  109HFI     C1 1787   1.596   1.085   3.172 -0.2970 -0.1844  0.9171
  109HFI     C2 1788   1.586   1.198   3.075  0.8731  0.0903  0.3829
  109HFI     F1 1789   1.585   1.314   3.133  0.1781  0.3553  0.2489
  109HFI     F2 1790   1.464   1.192   3.012 -0.4545  0.0732  0.2406
  109HFI     F3 1791   1.674   1.188   2.980  0.7249  0.4299  0.6871
  109HFI     C3 1792   1.723   1.092   3.255  0.1283  0.1220 -0.3284
  109HFI     F4 1793   1.714   1.194   3.339 -0.0610 -0.1448 -0.5356
  109HFI     F5 1794   1.829   1.102   3.182  0.3237 -0.7306  0.3764
  109HFI     F6 1795   1.727   0.978   3.329  0.0718  0.0165  0.2045
  109HFI     H1 1796   1.587   0.952   3.005  1.4854 -3.9210 -0.7660
  109HFI     H2 1797   1.517   1.096   3.247  0.0200 -1.2831  1.4207
  110HFI     O1 1798   1.674   0.765   0.712  0.1962  0.1357  0.2173
  110HFI     C1 1799   1.647   0.801   0.572  0.5968 -0.4416 -0.1544
  110HFI     C2 1800   1.542   0.713   0.501  0.1942  0.1423  0.0726
  110HFI     F1 1801   1.417   0.729   0.567 -0.4715  0.1350  0.1759
  110HFI     F2 1802   1.574   0.581   0.499 -0.5870 -0.3993 -0.0592
  110HFI     F3 1803   1.518   0.748   0.367 -0.2755 -0.3626  0.1360
  110HFI     C3 1804   1.769   0.830   0.491 -0.2836  0.0647 -0.5315
  110HFI     F4 1805   1.818   0.719   0.431  0.6530  0.0334  0.4947
  110HFI     F5 1806   1.868   0.884   0.567 -0.3226  0.1705  0.4406
  110HFI     F6 1807   1.735   0.918   0.391  0.2591  0.3634  0.1021
  110HFI     H1 1808   1.602   0.718   0.758  1.4405 -1.9605  0.0698
  110HFI     H2 1809   1.600   0.899   0.586  0.0043 -0.6583 -0.6249
  111HFI     O1 1810   1.196   0.001   1.306 -0.7832 -0.3739  0.2273
  111HFI     C1 1811   1.135   0.094   1.399 -0.0281  0.2591 -0.1822
  111HFI     C2 1812   1.175   0.061   1.543  0.3764  0.1018 -0.0012
  111HFI     F1 1813   1.211   0.185   1.595 -0.0832  0.0043 -0.2840
  111HFI     F2 1814   1.286  -0.021   1.559 -0.0400 -0.2499 -0.2162
  111HFI     F3 1815   1.071   0.007   1.613 -0.0327  0.1849  0.3845
  111HFI     C3 1816   0.978   0.129   1.389 -0.8532 -0.5831 -0.0202
  111HFI     F4 1817   0.952   0.210   1.280 -0.0906 -0.3064  0.2048
  111HFI     F5 1818   0.934   0.193   1.499  0.0600  0.0779 -0.1532
  111HFI     F6 1819   0.906   0.014   1.378 -0.3547  0.4738  0.2921
  111HFI     H1 1820   1.183  -0.092   1.332 -1.2831 -0.4526 -0.2922
  111HFI     H2 1821   1.175   0.194   1.380  0.0373  0.7188  2.2301
  112HFI     O1 1822   3.388   0.258   0.116  0.0434  0.2406  0.1198
  112HFI     C1 1823   3.446   0.385   0.175  0.0069 -0.6525 -0.7548
  112HFI     C2 1824   3.382   0.516   0.114 -0.7091  0.0336 -0.1027
  112HFI     F1 1825   3.253   0.525   0.148  0.4715  0.5466  0.7297
  112HFI     F2 1826   3.380   0.529  -0.024  0.1719 -0.2789 -0.2045
  112HFI     F3 1827   3.444   0.617   0.165  0.2143 -0.1785 -0.8973
  112HFI     C3 1828   3.599   0.376   0.177  0.9510  0.2542 -0.7035
  112HFI     F4 1829   3.655   0.460   0.268 -0.5145  0.2086 -0.1586
  112HFI     F5 1830   3.644   0.403   0.054 -0.3544  0.0090  0.3237
  112HFI     F6 1831   3.641   0.250   0.203 -0.3853 -0.2810  0.1097
  112HFI     H1 1832   3.433   0.183   0.158 -0.4372  1.0056  2.0481
  112HFI     H2 1833   3.422   0.378   0.282  2.1876 -1.0684 -0.2694
  113HFI     O1 1834   1.299   1.881   1.554  0.2541 -0.0856 -0.3298
  113HFI     C1 1835   1.200   1.978   1.508  0.1360  0.0095  0.0061
  113HFI     C2 1836   1.128   1.942   1.378 -0.0784  0.2309 -0.3762
  113HFI     F1 1837   1.217   1.912   1.283 -0.0936 -0.3231  0.4202
  113HFI     F2 1838   1.038   2.038   1.343  0.0246 -0.1132 -0.4571
  113HFI     F3 1839   1.057   1.833   1.409 -0.5022  0.0715  0.2276
  113HFI     C3 1840   1.266   2.116   1.491 -0.0197 -0.1190  0.0342
  113HFI     F4 1841   1.341   2.128   1.377  0.7295  0.2830 -0.3409
  113HFI     F5 1842   1.352   2.134   1.598  0.2750 -0.0716 -0.3817
  113HFI     F6 1843   1.173   2.217   1.501  0.4411 -0.2484  0.1838
  113HFI     H1 1844   1.388   1.913   1.530  1.1066 -2.3261 -0.2359
  113HFI     H2 1845   1.122   1.973   1.586  1.0584 -1.0918  0.8726
  114HFI     O1 1846   1.254   2.766   3.052  0.0992  0.0257 -1.0022
  114HFI     C1 1847   1.198   2.668   3.149 -0.8161  0.1122 -0.0699
  114HFI     C2 1848   1.133   2.749   3.263 -0.3727 -0.4422  0.0295
  114HFI     F1 1849   1.032   2.830   3.227 -0.4880  0.3463  0.5370
  114HFI     F2 1850   1.222   2.816   3.328  0.3220  0.0987 -0.0850
  114HFI     F3 1851   1.081   2.664   3.351  0.8001 -0.0028  0.9299
  114HFI     C3 1852   1.286   2.545   3.193  0.1210 -0.6392 -0.3914
  114HFI     F4 1853   1.210   2.443   3.237 -0.1953  0.2347  0.0507
  114HFI     F5 1854   1.369   2.577   3.290 -0.0253  0.0578 -0.4256
  114HFI     F6 1855   1.353   2.509   3.077  0.5463  0.5932  0.1649
  114HFI     H1 1856   1.291   2.838   3.107 -1.9623  2.4750 -2.7097
  114HFI     H2 1857   1.114   2.621   3.097  0.1279 -1.8679  0.1674
  115HFI     O1 1858   1.279   2.820   1.472 -0.3564 -0.7969  0.0208
  115HFI     C1 1859   1.379   2.746   1.405  0.1191 -0.3148 -0.4936
  115HFI     C2 1860   1.325   2.631   1.315 -0.1488 -0.1096  0.5126
  115HFI     F1 1861   1.225   2.667   1.235 -0.3320  0.1485  0.0892
  115HFI     F2 1862   1.277   2.523   1.380  0.1704 -0.0443  0.3872
  115HFI     F3 1863   1.417   2.588   1.236 -0.2613  0.4716  0.0204
  115HFI     C3 1864   1.488   2.693   1.504 -0.0031 -0.2218  0.5742
  115HFI     F4 1865   1.437   2.614   1.601  0.0003 -0.0625 -0.7393
  115HFI     F5 1866   1.561   2.799   1.569 -0.3440  0.1802  0.5681
  115HFI     F6 1867   1.578   2.616   1.438  0.2337  0.2847 -0.2940
  115HFI     H1 1868   1.232   2.764   1.536  1.9395  0.4683  3.0003
  115HFI     H2 1869   1.429   2.814   1.335 -1.0919  1.0556 -0.0536
  116HFI     O1 1870   2.870   1.105   3.075  0.2747  0.1005  0.4632
  116HFI     C1 1871   2.935   1.102   3.202 -0.2038  0.2353  0.1155
  116HFI     C2 1872   2.852   1.019   3.303  0.0286  0.5187  0.1917
  116HFI     F1 1873   2.855   0.892   3.254 -0.1154  0.5420  0.1810
  116HFI     F2 1874   2.720   1.054   3.314  0.1631 -0.2380  0.0555
  116HFI     F3 1875   2.906   1.013   3.429 -0.1078  0.0353  0.5492
  116HFI     C3 1876   2.963   1.243   3.245  0.2812  1.0703 -0.1333
  116HFI     F4 1877   2.848   1.313   3.272  0.2781 -0.3733 -0.0167
  116HFI     F5 1878   3.029   1.312   3.150  0.2017 -0.1476 -0.5013
  116HFI     F6 1879   3.044   1.247   3.356  0.2038  0.3016 -0.0475
  116HFI     H1 1880   2.776   1.113   3.098  0.2281 -1.8853  1.0663
  116HFI     H2 1881   3.027   1.042   3.200  0.4569  1.2330  0.0624
  117HFI     O1 1882   2.022   2.852   0.444  0.4307 -0.2137 -0.0186
  117HFI     C1 1883   1.924   2.833   0.343  0.1554 -0.0678  0.8277
  117HFI     C2 1884   1.780   2.858   0.411  0.0427  0.7962  0.3001
  117HFI     F1 1885   1.764   2.984   0.456 -0.2424  0.7192 -0.1151
  117HFI     F2 1886   1.773   2.778   0.516  0.5001  0.2334  0.0679
  117HFI     F3 1887   1.677   2.825   0.327 -0.7594 -0.5978 -0.3104
  117HFI     C3 1888   1.936   2.685   0.288 -0.5138  0.7413  0.2503
  117HFI     F4 1889   1.850   2.660   0.193  0.0580 -0.7081  0.1119
  117HFI     F5 1890   1.926   2.592   0.384  0.1647 -0.9991 -0.1727
  117HFI     F6 1891   2.055   2.667   0.233  0.0270  0.0712  0.0743
  117HFI     H1 1892   1.987   2.827   0.532  0.0617  0.1330 -0.0623
  117HFI     H2 1893   1.935   2.906   0.261 -3.4992 -0.3100  0.0147
  118HFI     O1 1894   0.169   1.774   3.696  0.2343 -0.0400 -0.1242
  118HFI     C1 1895   0.154   1.802   3.842 -0.6958 -0.3964  0.2255
  118HFI     C2 1896   0.194   1.683   3.939  0.7379  0.3355  0.7702
  118HFI     F1 1897   0.107   1.579   3.926 -0.3417 -0.0217 -0.3340
  118HFI     F2 1898   0.191   1.717   4.062  0.6915 -0.6642 -0.6158
  118HFI     F3 1899   0.316   1.633   3.907  0.3389 -0.0450 -0.1717
  118HFI     C3 1900   0.021   1.869   3.875 -0.1515  0.2833 -0.4353
  118HFI     F4 1901   0.006   1.982   3.801 -0.4411  0.0814 -0.2395
  118HFI     F5 1902   0.007   1.909   4.002 -0.0754 -0.2113 -0.2882
  118HFI     F6 1903  -0.079   1.787   3.860  0.0683 -0.4790 -0.2261
  118HFI     H1 1904   0.191   1.856   3.649  2.1964  0.5848  1.8047
  118HFI     H2 1905   0.229   1.879   3.866 -0.4013 -0.5797 -0.1122
  119HFI     O1 1906   1.662   1.775   3.661 -0.3838  0.1488  0.4440
  119HFI     C1 1907   1.753   1.668   3.683 -0.7758 -0.7172 -0.4891
  119HFI     C2 1908   1.675   1.535   3.712 -0.9271  0.3993  0.4335
  119HFI     F1 1909   1.759   1.428   3.690  0.5292  0.2574  0.3707
  119HFI     F2 1910   1.569   1.519   3.623 -0.3908 -0.0042  0.0294
  119HFI     F3 1911   1.625   1.526   3.839 -0.5985 -0.1406 -0.2392
  119HFI     C3 1912   1.868   1.694   3.782 -1.0310 -0.2159  1.3657
  119HFI     F4 1913   1.960   1.782   3.724  0.2132  0.7816  0.2410
  119HFI     F5 1914   1.935   1.582   3.825  0.0246 -0.4217  0.6024
  119HFI     F6 1915   1.826   1.748   3.901  0.0582 -0.3066  0.0911
  119HFI     H1 1916   1.630   1.816   3.743  0.5559  2.2116 -0.1733
  119HFI     H2 1917   1.808   1.645   3.591  1.3156 -1.5557  0.9052
  120HFI     O1 1918   2.567   0.181   2.495  0.4037  0.2483  0.0928
  120HFI     C1 1919   2.686   0.234   2.425 -0.3706  0.3275  0.2207
  120HFI     C2 1920   2.754   0.345   2.513  0.3883 -0.1807 -0.1570
  120HFI     F1 1921   2.669   0.448   2.530 -0.3785 -0.3134 -0.1101
  120HFI     F2 1922   2.864   0.405   2.467  0.3170  0.3476 -0.1079
  120HFI     F3 1923   2.792   0.289   2.627 -0.4427  0.3100 -0.8538
  120HFI     C3 1924   2.657   0.277   2.277  0.6106 -0.4054 -0.1528
  120HFI     F4 1925   2.547   0.353   2.262 -0.0497  0.3015 -0.3850
  120HFI     F5 1926   2.636   0.166   2.206 -0.4598 -0.0959  0.0118
  120HFI     F6 1927   2.756   0.346   2.215 -0.4856  0.0056  0.4984
  120HFI     H1 1928   2.489   0.228   2.462  1.7750  2.2410 -0.3446
  120HFI     H2 1929   2.771   0.164   2.424  0.4752  1.2924  1.5798
  121HFI     O1 1930   1.099   2.350   2.445  0.0316  0.7778  0.6761
  121HFI     C1 1931   0.962   2.388   2.430  0.3059 -0.0742  0.2730
  121HFI     C2 1932   0.953   2.476   2.305 -0.7193 -0.0381 -0.8235
  121HFI     F1 1933   1.027   2.586   2.316 -0.3932 -0.4811 -0.1637
  121HFI     F2 1934   0.829   2.527   2.275 -0.1496  0.8049 -0.3581
  121HFI     F3 1935   0.990   2.406   2.192 -0.4238  0.3071  0.1485
  121HFI     C3 1936   0.911   2.469   2.553 -0.6926 -0.4556 -0.3198
  121HFI     F4 1937   0.970   2.588   2.566 -0.1201  0.0905  0.6445
  121HFI     F5 1938   0.945   2.397   2.668  0.0222  0.8680  0.4415
  121HFI     F6 1939   0.776   2.487   2.549 -0.3186  0.0177 -0.2410
  121HFI     H1 1940   1.160   2.408   2.397 -1.9997  1.9981 -0.4975
  121HFI     H2 1941   0.901   2.298   2.415  0.0859 -0.1708  1.7066
  122HFI     O1 1942   0.618   1.276   1.007  0.0693 -0.4585  0.2305
  122HFI     C1 1943   0.626   1.196   1.129 -0.0376  0.9203  0.0528
  122HFI     C2 1944   0.710   1.262   1.232  1.5892  0.7295 -0.7779
  122HFI     F1 1945   0.836   1.301   1.198  0.1961 -0.3022  0.3603
  122HFI     F2 1946   0.714   1.188   1.343  0.1319  0.2404  0.1021
  122HFI     F3 1947   0.638   1.370   1.276  0.4437 -0.0895  0.2442
  122HFI     C3 1948   0.672   1.047   1.090 -0.3074 -0.1015 -0.3770
  122HFI     F4 1949   0.608   1.004   0.977  0.3063 -0.3953 -0.3894
  122HFI     F5 1950   0.642   0.964   1.186 -0.2873 -0.4424 -0.2569
  122HFI     F6 1951   0.800   1.038   1.073  0.5161  0.3135  0.1006
  122HFI     H1 1952   0.579   1.227   0.932  1.8640  0.4553 -1.3637
  122HFI     H2 1953   0.528   1.193   1.179 -1.3201  0.5466 -2.4251
  123HFI     O1 1954   2.671   1.011   2.249 -0.0223 -0.0886 -0.2629
  123HFI     C1 1955   2.699   0.869   2.250 -0.3409  0.1083 -0.5056
  123HFI     C2 1956   2.591   0.781   2.310 -0.3237 -0.4837  0.3943
  123HFI     F1 1957   2.589   0.796   2.442  0.2931  0.1689 -0.8566
  123HFI     F2 1958   2.601   0.652   2.276  0.5970 -0.1036  0.0721
  123HFI     F3 1959   2.467   0.816   2.259  0.2117  0.3183 -0.7224
  123HFI     C3 1960   2.833   0.824   2.306  0.5301  0.0158 -0.3327
  123HFI     F4 1961   2.933   0.901   2.261 -0.5842  0.0060  0.3790
  123HFI     F5 1962   2.858   0.695   2.269 -0.4578  0.1064  0.3212
  123HFI     F6 1963   2.842   0.834   2.438 -0.2989  0.1290 -0.0179
  123HFI     H1 1964   2.755   1.051   2.223 -0.7343  0.7425 -1.2994
  123HFI     H2 1965   2.697   0.824   2.150  0.9371 -0.4620 -0.2749
  124HFI     O1 1966   1.336   3.249   0.750  0.4618 -0.2846  1.2099
  124HFI     C1 1967   1.437   3.196   0.836  0.2731 -0.6139  0.1790
  124HFI     C2 1968   1.520   3.096   0.752  0.4814 -0.2267  0.5850
  124HFI     F1 1969   1.592   3.167   0.657  0.2160 -0.0138  0.0087
  124HFI     F2 1970   1.441   3.015   0.677  0.0744  0.0682 -0.2045
  124HFI     F3 1971   1.613   3.031   0.818 -0.1836 -0.0248 -0.4486
  124HFI     C3 1972   1.378   3.148   0.966 -0.8153  0.2371 -0.2960
  124HFI     F4 1973   1.307   3.035   0.958 -0.1031  0.3193 -0.4776
  124HFI     F5 1974   1.303   3.254   1.017  0.0417 -0.0729  0.1122
  124HFI     F6 1975   1.484   3.122   1.049  0.3850  0.2108  0.3202
  124HFI     H1 1976   1.373   3.269   0.662  1.3974  1.8859  2.0727
  124HFI     H2 1977   1.498   3.284   0.858 -3.5227  2.1821  0.0587
  125HFI     O1 1978   1.797   0.032   2.720  0.2260 -0.2274  0.3062
  125HFI     C1 1979   1.673   0.099   2.748  0.4245 -0.2753  0.0537
  125HFI     C2 1980   1.603   0.067   2.881  0.0980 -0.1296  0.6436
  125HFI     F1 1981   1.495   0.141   2.914  0.4409  0.3054 -0.1124
  125HFI     F2 1982   1.696   0.078   2.979  0.0632 -0.7612 -0.0931
  125HFI     F3 1983   1.564  -0.066   2.898 -0.4610 -0.1305  0.1695
  125HFI     C3 1984   1.580   0.075   2.631 -0.1849 -0.1152  0.3606
  125HFI     F4 1985   1.546  -0.059   2.614 -0.6103 -0.1502  0.1399
  125HFI     F5 1986   1.624   0.123   2.512  0.5324 -0.1055  0.1361
  125HFI     F6 1987   1.459   0.133   2.650  0.2922 -0.0058 -0.7230
  125HFI     H1 1988   1.838   0.012   2.806  1.5554 -0.9865 -0.4880
  125HFI     H2 1989   1.683   0.208   2.752  0.1496 -0.2029 -1.1679
  126HFI     O1 1990   1.663   0.180   0.091 -0.1615  0.5789  0.5278
  126HFI     C1 1991   1.787   0.268   0.108  0.5183  0.7837 -0.7317
  126HFI     C2 1992   1.899   0.181   0.166 -0.6290  0.1511 -0.1229
  126HFI     F1 1993   2.021   0.237   0.143 -0.2081 -0.1633 -0.4225
  126HFI     F2 1994   1.905   0.061   0.103 -0.0627 -0.0064 -0.0657
  126HFI     F3 1995   1.893   0.168   0.299  0.7541 -0.6089  0.0176
  126HFI     C3 1996   1.765   0.392   0.202 -0.2827 -0.4397  0.3435
  126HFI     F4 1997   1.704   0.491   0.130  0.1225 -0.2012 -0.1690
  126HFI     F5 1998   1.880   0.443   0.248 -0.5784  0.4216 -0.6899
  126HFI     F6 1999   1.679   0.369   0.302 -0.5139  0.0971 -0.1295
  126HFI     H1 2000   1.696   0.091   0.071  1.6627  1.6062 -1.1733
  126HFI     H2 2001   1.806   0.317   0.011  0.0921  1.5852 -0.4110
  127HFI     O1 2002   3.315   0.162   2.253 -0.0411  0.4174 -0.5376
  127HFI     C1 2003   3.237   0.075   2.343 -0.1924 -0.9589  0.6151
  127HFI     C2 2004   3.083   0.080   2.304  0.6284  0.2860  0.3383
  127HFI     F1 2005   3.006   0.001   2.380  0.3100 -0.4324 -0.6374
  127HFI     F2 2006   3.062   0.046   2.174  0.1486  0.1113  0.5602
  127HFI     F3 2007   3.033   0.207   2.313 -0.4604 -0.9621  0.1995
  127HFI     C3 2008   3.249   0.110   2.494 -0.8307  0.1781  0.1407
  127HFI     F4 2009   3.183   0.033   2.583 -0.2932  0.3501 -0.1176
  127HFI     F5 2010   3.210   0.237   2.513  0.2086  0.6686 -0.3881
  127HFI     F6 2011   3.378   0.105   2.532 -0.8845  0.3418  0.4090
  127HFI     H1 2012   3.270   0.248   2.245 -1.3055 -0.4866 -4.1671
  127HFI     H2 2013   3.259  -0.030   2.325  2.2343 -0.4015  0.1627
  128HFI     O1 2014   2.377   1.572   3.011 -0.1032 -0.0528  0.4664
  128HFI     C1 2015   2.450   1.672   2.920 -0.8077  0.3492 -0.1111
  128HFI     C2 2016   2.395   1.810   2.949 -0.1523 -0.5865  0.0434
  128HFI     F1 2017   2.452   1.905   2.876  0.4490 -0.3848  0.0339
  128HFI     F2 2018   2.409   1.842   3.079  0.7035  0.3510  0.0562
  128HFI     F3 2019   2.260   1.817   2.922 -0.3412 -0.3482 -0.3648
  128HFI     C3 2020   2.449   1.631   2.766  0.2321  0.1256 -1.0903
  128HFI     F4 2021   2.497   1.502   2.754 -0.6824  0.2435  0.1653
  128HFI     F5 2022   2.537   1.709   2.695 -0.1583 -0.4135  0.0130
  128HFI     F6 2023   2.331   1.633   2.695  0.0232  0.3351  0.0430
  128HFI     H1 2024   2.396   1.484   2.974 -0.1497  0.2494 -0.2806
  128HFI     H2 2025   2.555   1.674   2.951 -0.6436 -1.3857 -0.5224
  129HFI     O1 2026   1.779   1.153   2.489 -0.4615  0.6879  0.7553
  129HFI     C1 2027   1.712   1.043   2.409  0.4516  0.8431 -1.6927
  129HFI     C2 2028   1.744   1.052   2.259  0.6596 -0.0184 -0.1279
  129HFI     F1 2029   1.708   0.937   2.195  0.0060  0.1819 -0.4692
  129HFI     F2 2030   1.868   1.093   2.236 -0.5456  0.7767  0.1877
  129HFI     F3 2031   1.669   1.156   2.206  0.1099 -0.0900 -0.3641
  129HFI     C3 2032   1.551   1.051   2.436 -0.5153 -0.2799  0.3470
  129HFI     F4 2033   1.520   1.183   2.427  0.2541  0.2251 -0.0098
  129HFI     F5 2034   1.522   1.009   2.558 -0.1625  0.2561 -0.0542
  129HFI     F6 2035   1.476   0.983   2.344  0.0175 -0.6201  0.6923
  129HFI     H1 2036   1.733   1.231   2.454 -1.4402 -0.9702 -1.8159
  129HFI     H2 2037   1.742   0.945   2.448  0.6895  2.3760  2.2781
  130HFI     O1 2038   0.255   3.369   2.396 -0.8283 -0.3368 -0.3354
  130HFI     C1 2039   0.236   3.228   2.438  0.7515 -0.1282 -0.3759
  130HFI     C2 2040   0.243   3.125   2.318 -0.2241  0.1470  0.1384
  130HFI     F1 2041   0.151   3.157   2.226 -0.1163  0.2768  0.1176
  130HFI     F2 2042   0.222   2.997   2.360 -0.5779 -0.1628  0.2223
  130HFI     F3 2043   0.365   3.121   2.266  0.4712 -0.1175  0.1051
  130HFI     C3 2044   0.104   3.208   2.521  0.4845 -0.0730 -0.0564
  130HFI     F4 2045   0.008   3.246   2.435 -0.1809 -0.2645  0.0391
  130HFI     F5 2046   0.102   3.303   2.620 -0.0235  0.3635 -0.5715
  130HFI     F6 2047   0.087   3.087   2.570 -0.3107  0.0713 -0.3731
  130HFI     H1 2048   0.174   3.421   2.407 -1.2748 -1.0292 -0.3633
  130HFI     H2 2049   0.314   3.185   2.502  0.0691 -1.3633 -0.3627
  131HFI     O1 2050   0.038   2.980   3.287 -0.6173  0.7267 -0.3339
  131HFI     C1 2051   0.176   2.948   3.328  0.1052  0.2559  0.3219
  131HFI     C2 2052   0.250   3.074   3.366 -0.2448  0.1872  0.2224
  131HFI     F1 2053   0.243   3.163   3.269 -0.2625  0.5056 -0.1713
  131HFI     F2 2054   0.378   3.053   3.404 -0.1962 -0.1101  0.0055
  131HFI     F3 2055   0.190   3.126   3.472  0.1405  0.3804  0.4870
  131HFI     C3 2056   0.246   2.857   3.223  0.1148  0.4410 -0.2603
  131HFI     F4 2057   0.221   2.903   3.100  0.0816  0.1441 -0.1007
  131HFI     F5 2058   0.211   2.732   3.231  0.2336 -0.5006  0.0473
  131HFI     F6 2059   0.380   2.859   3.231  0.1000 -0.3427  0.2394
  131HFI     H1 2060   0.037   3.041   3.211  5.4110  0.1892 -1.0121
  131HFI     H2 2061   0.179   2.893   3.423  0.5321 -0.3925 -0.0661
  132HFI     O1 2062   1.956   1.652   3.082 -0.1572 -0.0062 -0.1828
  132HFI     C1 2063   1.844   1.650   3.166  0.5201 -0.1096 -0.2914
  132HFI     C2 2064   1.771   1.789   3.188  0.5255  0.6630 -0.4914
  132HFI     F1 2065   1.868   1.875   3.222  0.8127 -0.5824  0.3853
  132HFI     F2 2066   1.685   1.796   3.296 -0.7606 -0.1184  0.2305
  132HFI     F3 2067   1.719   1.829   3.066  0.0504 -0.9466 -0.2447
  132HFI     C3 2068   1.878   1.582   3.300 -0.4904  0.1335 -0.0443
  132HFI     F4 2069   1.765   1.542   3.371  0.2127 -0.0748  0.2005
  132HFI     F5 2070   1.957   1.655   3.382  0.1691 -0.0056 -0.1207
  132HFI     F6 2071   1.948   1.467   3.273 -0.7025 -0.3879 -0.1634
  132HFI     H1 2072   2.032   1.681   3.136  0.0334 -0.2194 -0.3365
  132HFI     H2 2073   1.765   1.588   3.120 -1.5916  0.6526  2.1812
  133HFI     O1 2074   0.940   2.979   2.476 -0.6857  0.2483  0.4171
  133HFI     C1 2075   0.803   3.012   2.429  0.1550 -0.1660  0.4780
  133HFI     C2 2076   0.809   3.025   2.279 -0.9866  0.0706 -0.5533
  133HFI     F1 2077   0.873   3.133   2.239 -0.4415  0.1238 -0.2934
  133HFI     F2 2078   0.686   3.026   2.219 -0.4852  0.2356  0.4252
  133HFI     F3 2079   0.873   2.915   2.224 -0.1953 -0.1021 -0.4781
  133HFI     C3 2080   0.741   3.139   2.489 -0.2917  0.2885  0.4739
  133HFI     F4 2081   0.629   3.187   2.421 -0.4300 -0.3679 -0.3077
  133HFI     F5 2082   0.834   3.242   2.485  0.4963  0.0884 -0.4736
  133HFI     F6 2083   0.703   3.120   2.613  0.0983  0.6679 -0.2283
  133HFI     H1 2084   0.946   2.882   2.468  0.0927  0.3783 -0.6852
  133HFI     H2 2085   0.733   2.928   2.441 -0.6261  0.6490  1.8138
  134HFI     O1 2086   2.267   1.830   0.687  0.4607  0.2754 -0.4860
  134HFI     C1 2087   2.373   1.763   0.613  0.8787 -0.3323 -0.2978
  134HFI     C2 2088   2.515   1.769   0.679 -0.5533 -0.3252  0.6151
  134HFI     F1 2089   2.518   1.710   0.796 -0.2075 -0.1672 -0.3385
  134HFI     F2 2090   2.554   1.900   0.697  0.1611  0.1133 -1.0966
  134HFI     F3 2091   2.610   1.711   0.601  0.3326  0.4369  0.1949
  134HFI     C3 2092   2.386   1.802   0.467 -0.1810  0.5033  0.1051
  134HFI     F4 2093   2.450   1.718   0.393 -0.2446  0.7407  0.1263
  134HFI     F5 2094   2.449   1.919   0.453  0.1063 -0.3132 -0.4350
  134HFI     F6 2095   2.264   1.825   0.410 -0.0503 -0.0954 -0.1523
  134HFI     H1 2096   2.220   1.881   0.619  1.3582  0.0539 -1.2933
  134HFI     H2 2097   2.349   1.656   0.615 -0.5490 -0.0264 -0.5509
  135HFI     O1 2098   2.361   1.245   2.879 -0.1468 -0.3611 -0.5130
  135HFI     C1 2099   2.343   1.139   2.982  0.2002  0.0203  0.1320
  135HFI     C2 2100   2.199   1.125   3.018  0.3634 -0.5474 -0.2873
  135HFI     F1 2101   2.168   1.000   3.076 -0.2420 -0.2170  0.0040
  135HFI     F2 2102   2.121   1.126   2.906 -0.1573  0.3271 -0.6552
  135HFI     F3 2103   2.154   1.223   3.107 -0.6044  0.4272 -0.0557
  135HFI     C3 2104   2.430   1.170   3.106  0.5340  0.6186 -0.1346
  135HFI     F4 2105   2.413   1.082   3.197  0.0271  0.2523  0.6201
  135HFI     F5 2106   2.399   1.294   3.150 -0.4120 -0.4767 -0.9242
  135HFI     F6 2107   2.561   1.165   3.076 -0.0486 -0.1771  0.0765
  135HFI     H1 2108   2.303   1.219   2.806 -1.7796 -0.7055  0.8729
  135HFI     H2 2109   2.377   1.042   2.943 -2.3645 -1.8609  2.4104
  136HFI     O1 2110   2.230   3.005   2.393 -0.5791 -0.2713  0.4768
  136HFI     C1 2111   2.153   2.906   2.322 -1.3403  0.4799 -0.1693
  136HFI     C2 2112   1.999   2.911   2.337 -0.3507  0.2957  0.4457
  136HFI     F1 2113   1.959   2.847   2.453  0.0226  0.3600 -0.6738
  136HFI     F2 2114   1.941   2.849   2.231  0.1257  0.1251 -0.0085
  136HFI     F3 2115   1.963   3.041   2.343  0.2472 -0.3025  0.0680
  136HFI     C3 2116   2.210   2.771   2.346  0.3490 -0.5381  0.6420
  136HFI     F4 2117   2.138   2.679   2.289 -0.1490 -0.5011 -0.1491
  136HFI     F5 2118   2.212   2.739   2.474 -0.4136 -0.2387 -0.2369
  136HFI     F6 2119   2.336   2.763   2.297  0.3231 -0.2577  0.1784
  136HFI     H1 2120   2.326   2.986   2.389 -0.5827 -0.3481  0.6949
  136HFI     H2 2121   2.173   2.930   2.217  1.9872 -0.5621  0.1743
  137HFI     O1 2122   1.488   2.532   3.605  0.2167  0.2623 -0.1285
  137HFI     C1 2123   1.444   2.553   3.744  0.7378  0.2069  0.1621
  137HFI     C2 2124   1.451   2.707   3.792  0.3688 -0.1433  0.0671
  137HFI     F1 2125   1.397   2.784   3.690  0.0395  0.3954 -0.2558
  137HFI     F2 2126   1.581   2.749   3.813 -0.5090 -0.3313 -0.5422
  137HFI     F3 2127   1.370   2.724   3.901 -0.5246 -0.1506  0.2278
  137HFI     C3 2128   1.503   2.450   3.840  0.2804  0.0016 -1.0831
  137HFI     F4 2129   1.639   2.455   3.839 -0.0245  0.0106 -0.1324
  137HFI     F5 2130   1.464   2.331   3.808  0.2148  0.1405 -0.2397
  137HFI     F6 2131   1.458   2.469   3.965 -0.2768 -0.3624 -0.1174
  137HFI     H1 2132   1.571   2.582   3.594 -0.0451  1.0634  1.4165
  137HFI     H2 2133   1.338   2.528   3.755  1.0078 -0.0311  2.4165
  138HFI     O1 2134   3.189   1.687   0.876 -0.4542  0.3293  0.7532
  138HFI     C1 2135   3.056   1.745   0.851  0.5833 -0.0881  0.1574
  138HFI     C2 2136   3.053   1.898   0.883  0.0549 -0.4863 -0.2138
  138HFI     F1 2137   3.156   1.956   0.818  0.2947 -0.0282 -0.4599
  138HFI     F2 2138   3.071   1.921   1.014 -0.0818  0.0368  0.0207
  138HFI     F3 2139   2.941   1.957   0.843 -0.3307  0.1159 -0.4288
  138HFI     C3 2140   2.948   1.658   0.917  0.3047  0.7655  0.3497
  138HFI     F4 2141   2.961   1.527   0.881  0.1001  0.4547 -0.0204
  138HFI     F5 2142   2.829   1.698   0.877 -0.3089 -0.0190 -0.1681
  138HFI     F6 2143   2.951   1.654   1.051  0.1049  0.3652 -0.3651
  138HFI     H1 2144   3.224   1.729   0.957  0.6629  0.1382  0.3839
  138HFI     H2 2145   3.036   1.737   0.743 -0.1876 -2.5525  0.4524
  139HFI     O1 2146   3.321   2.183   1.520  0.1179 -0.1551  0.2167
  139HFI     C1 2147   3.465   2.161   1.537 -0.0283  0.3814  0.1306
  139HFI     C2 2148   3.556   2.261   1.472 -0.7126  0.3788 -0.0945
  139HFI     F1 2149   3.506   2.386   1.484 -0.5286 -0.0034 -0.2189
  139HFI     F2 2150   3.554   2.230   1.339  0.3021 -0.2129 -0.1840
  139HFI     F3 2151   3.683   2.264   1.520  0.1197 -0.1762  0.6957
  139HFI     C3 2152   3.515   2.015   1.502  0.2091 -0.7017  0.1888
  139HFI     F4 2153   3.471   1.927   1.594 -0.0927 -0.8223 -0.4182
  139HFI     F5 2154   3.648   2.005   1.486 -0.0012 -0.4912  0.4884
  139HFI     F6 2155   3.468   1.972   1.384  0.1328 -0.1678  0.2491
  139HFI     H1 2156   3.286   2.114   1.461 -3.0734  2.3895 -1.0376
  139HFI     H2 2157   3.498   2.165   1.641  3.7207  0.6743 -0.9986
  140HFI     O1 2158   1.299   1.392   2.573  0.4905  0.1943 -0.5513
  140HFI     C1 2159   1.286   1.455   2.706 -1.1811  0.6188  0.2728
  140HFI     C2 2160   1.174   1.387   2.790  0.2240 -0.6993  0.5698
  140HFI     F1 2161   1.053   1.397   2.735  0.7152 -0.1004 -0.1610
  140HFI     F2 2162   1.165   1.443   2.910 -0.2522 -0.1471 -0.1348
  140HFI     F3 2163   1.202   1.258   2.815 -0.3136 -0.7764 -0.2517
  140HFI     C3 2164   1.273   1.603   2.695 -0.1159 -0.1043 -0.3428
  140HFI     F4 2165   1.397   1.643   2.663 -0.6197 -0.0480  0.1948
  140HFI     F5 2166   1.245   1.665   2.814  0.6865  0.0503  0.3392
  140HFI     F6 2167   1.186   1.640   2.597  0.1060 -0.0558  0.6433
  140HFI     H1 2168   1.346   1.451   2.512  1.1085 -0.2425 -0.5075
  140HFI     H2 2169   1.376   1.438   2.767 -0.5351 -2.6554 -1.5349
  141HFI     O1 2170   0.474   2.645   1.094  0.5731 -0.0041 -0.1890
  141HFI     C1 2171   0.381   2.540   1.046 -0.0003  0.1038  0.1714
  141HFI     C2 2172   0.237   2.598   1.021  0.3746 -0.5964 -0.1224
  141HFI     F1 2173   0.162   2.524   0.934 -0.1172 -0.3040  0.1526
  141HFI     F2 2174   0.251   2.715   0.955  0.1845 -0.3916 -0.0127
  141HFI     F3 2175   0.164   2.625   1.132  0.3820 -0.4255  0.0231
  141HFI     C3 2176   0.385   2.417   1.143  0.0596  0.1909 -0.0923
  141HFI     F4 2177   0.503   2.357   1.115  0.1125 -0.2515  0.0005
  141HFI     F5 2178   0.288   2.333   1.119  0.1322  0.2140 -0.3273
  141HFI     F6 2179   0.386   2.454   1.274  0.0179  0.4349 -0.5286
  141HFI     H1 2180   0.453   2.653   1.188 -0.6417 -2.3093 -0.2387
  141HFI     H2 2181   0.422   2.514   0.948 -0.3906 -0.7352  0.2291
  142HFI     O1 2182   0.221   0.838   0.462  0.5589 -0.1111  0.3223
  142HFI     C1 2183   0.353   0.904   0.462  0.3699  0.3540 -0.2023
  142HFI     C2 2184   0.366   1.004   0.583 -0.3590 -0.4276  0.0992
  142HFI     F1 2185   0.338   0.935   0.693 -0.1998  0.0706 -0.0261
  142HFI     F2 2186   0.276   1.108   0.565 -0.1489 -0.0422  0.1937
  142HFI     F3 2187   0.479   1.069   0.592 -0.7559 -0.0960 -0.0479
  142HFI     C3 2188   0.395   0.948   0.316  0.2955  0.4091 -0.0194
  142HFI     F4 2189   0.522   0.993   0.307 -0.0293 -0.2961 -0.6326
  142HFI     F5 2190   0.308   1.030   0.260  0.0421 -0.3167  0.2515
  142HFI     F6 2191   0.399   0.841   0.231  0.0388 -0.2614  0.2039
  142HFI     H1 2192   0.181   0.842   0.373 -0.8916  2.6300  1.0477
  142HFI     H2 2193   0.425   0.825   0.486 -1.5071 -1.8760 -1.6845
  143HFI     O1 2194   2.728   1.357   1.385 -0.0306  0.1760  0.1850
  143HFI     C1 2195   2.622   1.455   1.385 -0.4043 -0.5337 -0.0287
  143HFI     C2 2196   2.656   1.565   1.271 -0.3835 -0.0420 -0.2436
  143HFI     F1 2197   2.626   1.515   1.149 -0.3283  0.0432  0.1745
  143HFI     F2 2198   2.782   1.599   1.272 -0.0199  0.1908 -0.9639
  143HFI     F3 2199   2.585   1.683   1.293  0.1990 -0.0155  0.2646
  143HFI     C3 2200   2.602   1.513   1.529  0.6714  0.8909  0.6670
  143HFI     F4 2201   2.711   1.579   1.575 -0.9063  0.3630  0.4775
  143HFI     F5 2202   2.576   1.423   1.623  0.3195 -0.0486  0.3327
  143HFI     F6 2203   2.498   1.597   1.533 -0.0125  0.1932 -0.0360
  143HFI     H1 2204   2.814   1.396   1.409 -0.8566  1.5030  1.0802
  143HFI     H2 2205   2.530   1.405   1.352  0.2096 -0.7856 -1.3936
  144HFI     O1 2206   0.747   2.825   0.107 -0.3909 -0.2269 -0.5793
  144HFI     C1 2207   0.777   2.908  -0.004 -0.2607 -0.0880  0.2742
  144HFI     C2 2208   0.759   2.832  -0.139  0.1226 -0.3247  0.4239
  144HFI     F1 2209   0.756   2.906  -0.250  0.1135  0.3019  0.6265
  144HFI     F2 2210   0.646   2.756  -0.136  0.4047 -0.4898  0.1824
  144HFI     F3 2211   0.857   2.743  -0.168 -0.0166 -0.4602  0.1120
  144HFI     C3 2212   0.920   2.964   0.005 -0.0911  0.0675 -0.3152
  144HFI     F4 2213   0.941   3.028  -0.112  0.4644  0.2125  0.3532
  144HFI     F5 2214   1.012   2.871   0.024  0.4152 -0.4101  0.2280
  144HFI     F6 2215   0.926   3.040   0.113 -0.2924  0.2486 -0.3400
  144HFI     H1 2216   0.766   2.734   0.077  0.2041 -0.2772 -0.0568
  144HFI     H2 2217   0.712   2.995  -0.015  1.3432  0.9368 -1.3547
  145HFI     O1 2218   1.006   2.141   0.320 -0.1262  0.6020 -0.7477
  145HFI     C1 2219   0.985   2.100   0.455  0.5985  0.2100 -0.3491
  145HFI     C2 2220   1.121   2.076   0.525  0.2216  0.2700  0.0034
  145HFI     F1 2221   1.173   2.198   0.550 -0.4523  0.6294  0.0828
  145HFI     F2 2222   1.204   2.017   0.438  0.1277 -0.3247  0.5951
  145HFI     F3 2223   1.110   2.007   0.640 -0.6538 -0.1818 -0.1751
  145HFI     C3 2224   0.892   1.973   0.462  0.2412  0.4774  0.2549
  145HFI     F4 2225   0.786   1.977   0.374 -0.0149  0.4713  0.5593
  145HFI     F5 2226   0.850   1.935   0.588  0.2326 -0.3266 -0.4389
  145HFI     F6 2227   0.965   1.869   0.427  0.1932 -0.0575 -0.2854
  145HFI     H1 2228   1.096   2.123   0.287  0.1834 -0.8733  0.7684
  145HFI     H2 2229   0.934   2.177   0.514 -0.2982 -1.6634  1.3629
  146HFI     O1 2230   0.375   2.224   2.911  0.1980 -0.6698 -0.2748
  146HFI     C1 2231   0.355   2.363   2.949  0.4248  0.1562 -0.6943
  146HFI     C2 2232   0.210   2.372   3.008  0.0608 -1.2480  0.3250
  146HFI     F1 2233   0.121   2.296   2.943 -0.3364  0.0168  0.1515
  146HFI     F2 2234   0.163   2.501   3.013 -0.1606 -0.0206  0.5420
  146HFI     F3 2235   0.215   2.325   3.135 -0.3990 -0.5196  0.2272
  146HFI     C3 2236   0.376   2.463   2.834 -0.0813 -0.0536  0.1351
  146HFI     F4 2237   0.362   2.593   2.879  0.1983 -0.2098 -0.0082
  146HFI     F5 2238   0.285   2.428   2.738  0.1379 -0.4264 -0.4203
  146HFI     F6 2239   0.498   2.457   2.783  0.2839 -0.3169  0.8176
  146HFI     H1 2240   0.383   2.214   2.814  0.4970  1.0673 -0.4358
  146HFI     H2 2241   0.434   2.385   3.022 -0.3005  0.7869 -0.0978
  147HFI     O1 2242   2.339   0.364   2.458 -0.2507  0.3048 -0.1989
  147HFI     C1 2243   2.217   0.364   2.377 -0.6404  0.1581 -0.0270
  147HFI     C2 2244   2.218   0.492   2.288 -0.0645  0.2630 -0.9008
  147HFI     F1 2245   2.238   0.597   2.368 -0.0821 -0.2929  0.2300
  147HFI     F2 2246   2.097   0.504   2.224  0.1404  0.0155 -0.1195
  147HFI     F3 2247   2.313   0.496   2.190  0.2007 -0.0802  0.1093
  147HFI     C3 2248   2.093   0.343   2.464  0.2561  1.4943  0.0474
  147HFI     F4 2249   2.064   0.458   2.531  0.7188  0.1933 -0.1655
  147HFI     F5 2250   2.117   0.250   2.562 -0.2506 -0.1821  0.1697
  147HFI     F6 2251   1.988   0.298   2.393 -0.0202 -0.2111  0.1322
  147HFI     H1 2252   2.364   0.456   2.474  0.1371  0.3507 -0.9989
  147HFI     H2 2253   2.215   0.288   2.298 -0.1055 -0.6749  0.7449
  148HFI     O1 2254   0.859   1.715   2.991 -0.1117 -0.0536  0.7491
  148HFI     C1 2255   0.888   1.724   2.846  0.6440  0.0966  0.6754
  148HFI     C2 2256   0.959   1.858   2.808 -0.0924  0.1513  0.3098
  148HFI     F1 2257   0.874   1.959   2.804  0.6864  0.1226 -0.1578
  148HFI     F2 2258   1.011   1.848   2.688 -0.1740 -0.4651 -0.4448
  148HFI     F3 2259   1.055   1.887   2.890 -0.0825 -0.2005 -0.0555
  148HFI     C3 2260   0.771   1.683   2.747  0.1569  0.3579  0.5188
  148HFI     F4 2261   0.666   1.769   2.744  0.2738 -0.4957 -0.6193
  148HFI     F5 2262   0.728   1.566   2.782  0.1663  0.4164  0.2850
  148HFI     F6 2263   0.819   1.683   2.624 -0.4486 -0.4225 -0.4553
  148HFI     H1 2264   0.807   1.791   3.020  1.3597  0.7117  1.4542
  148HFI     H2 2265   0.963   1.647   2.828  0.5998  0.4259 -1.0478
  149HFI     O1 2266   0.818   3.400   3.365 -0.2249 -0.0015 -0.0744
  149HFI     C1 2267   0.889   3.273   3.367  0.0357  0.1700  0.1183
  149HFI     C2 2268   1.013   3.281   3.281  0.4435  0.2039  0.8383
  149HFI     F1 2269   1.113   3.354   3.333  0.4230  0.0615 -0.1882
  149HFI     F2 2270   0.978   3.336   3.159  0.2749 -0.2087 -0.4762
  149HFI     F3 2271   1.069   3.158   3.247 -0.2425 -0.0719  0.0566
  149HFI     C3 2272   0.789   3.164   3.324  0.3832 -0.8793 -0.5414
  149HFI     F4 2273   0.683   3.160   3.409  0.3690 -0.8434  0.3256
  149HFI     F5 2274   0.847   3.041   3.322  0.0332  0.8704  0.8020
  149HFI     F6 2275   0.741   3.189   3.201  0.1425 -0.0912  0.1731
  149HFI     H1 2276   0.799   3.414   3.271 -0.7466 -1.5979 -0.2165
  149HFI     H2 2277   0.927   3.251   3.468  1.1960  0.4196 -0.2548
  150HFI     O1 2278   0.301   1.059   2.475  0.0737  1.0724 -1.3876
  150HFI     C1 2279   0.281   0.942   2.388 -0.2093  0.9541 -0.0057
  150HFI     C2 2280   0.420   0.886   2.343 -0.2966 -0.1994  0.0973
  150HFI     F1 2281   0.494   0.964   2.261 -0.3480 -0.2039  0.3204
  150HFI     F2 2282   0.412   0.763   2.283 -0.2868  0.6264 -0.1750
  150HFI     F3 2283   0.504   0.870   2.453 -0.2978 -0.4317 -0.2271
  150HFI     C3 2284   0.179   0.971   2.284  0.3187  0.5588  0.5293
  150HFI     F4 2285   0.066   1.019   2.336 -0.0724  0.0013 -0.0962
  150HFI     F5 2286   0.147   0.863   2.211 -0.0590 -0.5387 -0.0308
  150HFI     F6 2287   0.225   1.065   2.193  1.2562 -0.0348 -0.2084
  150HFI     H1 2288   0.384   1.102   2.447  0.9242  2.3929  2.7636
  150HFI     H2 2289   0.242   0.857   2.446 -1.8197  0.8869 -1.1605
  151HFI     O1 2290   2.259   3.438   2.977 -0.1741 -0.2248  0.1754
  151HFI     C1 2291   2.201   3.562   2.966 -0.1086  0.8282 -0.3229
  151HFI     C2 2292   2.178   3.627   3.107  0.2246 -0.5116 -0.0947
  151HFI     F1 2293   2.091   3.566   3.178  0.2497 -0.4428 -0.1390
  151HFI     F2 2294   2.143   3.756   3.083  0.3309 -0.3408 -0.2360
  151HFI     F3 2295   2.298   3.628   3.172  0.1128 -0.6606 -0.2443
  151HFI     C3 2296   2.071   3.547   2.885  0.4087 -0.2993  0.2262
  151HFI     F4 2297   2.099   3.514   2.760  0.0957 -0.3770 -0.6925
  151HFI     F5 2298   1.993   3.663   2.878 -0.1096 -0.1476 -0.0453
  151HFI     F6 2299   1.992   3.446   2.943  0.0622  0.0796 -1.0485
  151HFI     H1 2300   2.353   3.438   3.004 -0.4828 -1.5288  1.3637
  151HFI     H2 2301   2.266   3.629   2.908 -1.4854  0.7021 -2.0550
  152HFI     O1 2302   0.399   1.916   0.995  0.2278  0.2809 -0.0149
  152HFI     C1 2303   0.306   1.842   1.079  0.8825  0.4711  0.5316
  152HFI     C2 2304   0.335   1.688   1.062 -0.4369 -0.1569  0.0858
  152HFI     F1 2305   0.262   1.603   1.139  0.0055 -0.1623  0.2811
  152HFI     F2 2306   0.465   1.668   1.092  0.0565 -0.1175  0.1323
  152HFI     F3 2307   0.317   1.647   0.931  0.0476  0.1137  0.0517
  152HFI     C3 2308   0.156   1.875   1.044  0.2400 -0.2264  0.0355
  152HFI     F4 2309   0.107   1.824   0.927 -0.2106  0.3381  0.7495
  152HFI     F5 2310   0.143   2.012   1.034 -0.7327 -0.4234 -0.3874
  152HFI     F6 2311   0.073   1.835   1.144  0.6171 -0.0297 -0.0420
  152HFI     H1 2312   0.489   1.884   1.010 -0.3399 -0.9880  0.7886
  152HFI     H2 2313   0.314   1.874   1.184  0.7335  1.5352  0.2258
  153HFI     O1 2314   2.558   0.470   2.905  0.0224 -0.3351  0.0142
  153HFI     C1 2315   2.491   0.598   2.884  0.4613 -0.1339 -0.2241
  153HFI     C2 2316   2.441   0.668   3.015 -0.1998  0.0035  0.1665
  153HFI     F1 2317   2.526   0.639   3.115  0.9506 -0.5274  0.8198
  153HFI     F2 2318   2.322   0.632   3.043 -0.2129  0.3278 -0.2950
  153HFI     F3 2319   2.439   0.803   2.998 -0.1359 -0.3068  0.3773
  153HFI     C3 2320   2.376   0.588   2.790  0.1451 -0.0081  1.0546
  153HFI     F4 2321   2.410   0.561   2.655  0.0601 -0.0328 -0.2245
  153HFI     F5 2322   2.303   0.700   2.784 -0.5563 -0.7183  0.5362
  153HFI     F6 2323   2.295   0.483   2.824  0.1682  0.5447 -0.0032
  153HFI     H1 2324   2.602   0.472   2.992 -2.2883 -3.6271  1.3551
  153HFI     H2 2325   2.566   0.667   2.843  0.3371 -1.0775 -2.0380
  154HFI     O1 2326   2.305   2.001   3.636 -0.0211  0.3559  0.3966
  154HFI     C1 2327   2.354   1.947   3.506 -0.2237 -0.1656 -0.7473
  154HFI     C2 2328   2.440   2.051   3.428  0.1668 -0.1467 -0.3049
  154HFI     F1 2329   2.382   2.172   3.400  0.1359 -0.3304  0.0886
  154HFI     F2 2330   2.472   2.015   3.309 -0.3363 -0.1392 -0.4119
  154HFI     F3 2331   2.544   2.080   3.501 -0.0159 -0.1787  0.3320
  154HFI     C3 2332   2.235   1.896   3.423 -0.0837 -0.1948  0.0044
  154HFI     F4 2333   2.155   1.811   3.496  0.0051 -0.3501  0.3755
  154HFI     F5 2334   2.279   1.829   3.314  0.3888  0.4303  0.1480
  154HFI     F6 2335   2.147   1.998   3.385  0.4951  0.3229 -0.1034
  154HFI     H1 2336   2.213   2.030   3.623  0.3347  2.1395  1.6246
  154HFI     H2 2337   2.404   1.852   3.528  0.2339  0.2633  0.0770
  155HFI     O1 2338   2.302   0.199   0.047 -0.8949  0.0430 -0.2182
  155HFI     C1 2339   2.384   0.128   0.148  0.3959  0.2515 -0.8646
  155HFI     C2 2340   2.368  -0.021   0.127 -0.0936  0.0165 -0.5151
  155HFI     F1 2341   2.242  -0.065   0.133  0.3227 -0.5412  0.3989
  155HFI     F2 2342   2.449  -0.083   0.214  0.5542 -0.5659  0.3934
  155HFI     F3 2343   2.416  -0.058   0.004  0.1133 -0.3459  0.3405
  155HFI     C3 2344   2.355   0.177   0.294  0.1926 -0.1359 -0.5733
  155HFI     F4 2345   2.355   0.320   0.303  0.5768  0.3997 -0.1752
  155HFI     F5 2346   2.454   0.126   0.377  0.5093 -0.3350 -0.0206
  155HFI     F6 2347   2.240   0.136   0.346 -0.2589 -0.1227  0.0068
  155HFI     H1 2348   2.207   0.184   0.062 -0.4180 -1.0435  1.9022
  155HFI     H2 2349   2.487   0.145   0.116  0.7580  0.2574  0.3071
  156HFI     O1 2350   1.259   1.392   3.384 -0.0820 -0.3520 -0.1898
  156HFI     C1 2351   1.208   1.282   3.458 -0.2683  0.9165 -0.2958
  156HFI     C2 2352   1.246   1.304   3.606 -0.4279 -0.7904 -0.3180
  156HFI     F1 2353   1.179   1.405   3.654  0.9425  0.5314  0.1603
  156HFI     F2 2354   1.376   1.328   3.626 -0.1923 -0.2018  0.0141
  156HFI     F3 2355   1.210   1.192   3.679 -0.9032  0.1388  0.2301
  156HFI     C3 2356   1.269   1.148   3.410  0.2982 -0.2934  0.1187
  156HFI     F4 2357   1.207   1.037   3.460  0.0592  0.4338 -0.5384
  156HFI     F5 2358   1.396   1.139   3.442 -0.6382 -0.4630 -0.0701
  156HFI     F6 2359   1.262   1.145   3.274 -0.2206 -0.0237  0.2334
  156HFI     H1 2360   1.321   1.352   3.322  1.3728  1.5010  0.0122
  156HFI     H2 2361   1.099   1.274   3.453 -0.1902  0.0204 -0.6904
  157HFI     O1 2362   0.567   1.078   0.023 -0.1307  0.4031  0.0585
  157HFI     C1 2363   0.525   1.211  -0.030 -0.5801  0.6864 -0.4011
  157HFI     C2 2364   0.514   1.315   0.085 -0.2620  1.1824 -0.1675
  157HFI     F1 2365   0.389   1.322   0.132 -0.3459 -0.2711 -0.6435
  157HFI     F2 2366   0.545   1.437   0.037 -0.2101 -0.2026  0.1738
  157HFI     F3 2367   0.599   1.278   0.184  0.1838  0.3173 -0.0123
  157HFI     C3 2368   0.404   1.208  -0.129  0.3002 -0.0098  0.9997
  157HFI     F4 2369   0.301   1.133  -0.079  0.3511 -0.1583 -0.1679
  157HFI     F5 2370   0.446   1.150  -0.250 -1.2342  0.4345 -0.1403
  157HFI     F6 2371   0.358   1.330  -0.156  0.4719  0.2177 -0.2308
  157HFI     H1 2372   0.581   1.092   0.118  0.4448  1.3844 -0.1615
  157HFI     H2 2373   0.605   1.242  -0.098 -0.2992  1.3685  0.2370
  158HFI     O1 2374   0.683   2.214   2.362  0.4517  0.1736  0.4911
  158HFI     C1 2375   0.590   2.183   2.478 -0.1928 -0.4015 -0.4060
  158HFI     C2 2376   0.650   2.079   2.576 -0.0385  0.3506 -0.7187
  158HFI     F1 2377   0.568   2.060   2.680  0.1618  0.3598  0.3595
  158HFI     F2 2378   0.769   2.130   2.627  0.0501  0.0851  0.2054
  158HFI     F3 2379   0.662   1.953   2.523  0.7022 -0.1691 -0.1580
  158HFI     C3 2380   0.443   2.154   2.445  0.0470 -0.0628  1.0085
  158HFI     F4 2381   0.354   2.176   2.541 -0.3898 -0.3537  0.0272
  158HFI     F5 2382   0.429   2.027   2.400 -0.4651 -0.0722 -0.0144
  158HFI     F6 2383   0.418   2.229   2.339 -0.3033 -0.1497 -0.3000
  158HFI     H1 2384   0.701   2.129   2.317 -0.5920  1.2264 -1.9800
  158HFI     H2 2385   0.594   2.270   2.544 -0.5022 -1.5146  1.1072
  159HFI     O1 2386   0.849   1.689   0.725  0.2705  0.0663 -0.1229
  159HFI     C1 2387   0.907   1.721   0.863 -1.2566  0.1474  0.3159
  159HFI     C2 2388   0.933   1.594   0.952 -0.3934 -1.3592 -0.1679
  159HFI     F1 2389   1.007   1.502   0.884 -0.3484 -0.0186 -0.3647
  159HFI     F2 2390   0.819   1.524   0.984  0.2141 -0.2792  0.0073
  159HFI     F3 2391   1.000   1.632   1.062  0.7278  0.9227 -0.0985
  159HFI     C3 2392   0.815   1.819   0.943 -0.1428 -0.1086  0.4703
  159HFI     F4 2393   0.732   1.886   0.856  0.0150  0.0585  0.2709
  159HFI     F5 2394   0.893   1.911   1.005 -0.2989  0.0624  0.0761
  159HFI     F6 2395   0.731   1.770   1.037 -0.1073  0.2898  0.2414
  159HFI     H1 2396   0.813   1.771   0.689 -1.1927 -0.9623 -1.0354
  159HFI     H2 2397   1.002   1.774   0.846  0.1810 -2.6372 -0.5858
  160HFI     O1 2398   2.387   2.454   3.441  0.6123 -0.0888 -0.4176
  160HFI     C1 2399   2.314   2.536   3.344  0.3378  0.3252  0.2212
  160HFI     C2 2400   2.231   2.437   3.255 -0.0326  0.6643 -0.3824
  160HFI     F1 2401   2.149   2.497   3.170  0.4567 -0.0125  0.8346
  160HFI     F2 2402   2.164   2.360   3.339  0.5899  0.3458 -0.2623
  160HFI     F3 2403   2.309   2.349   3.182 -0.3855 -0.0778  0.3442
  160HFI     C3 2404   2.402   2.632   3.264 -0.3113  0.3323 -0.0755
  160HFI     F4 2405   2.322   2.725   3.208 -0.5283 -0.0271 -0.6915
  160HFI     F5 2406   2.466   2.566   3.165  0.7017 -0.3831 -0.5849
  160HFI     F6 2407   2.505   2.697   3.338 -0.1156  0.4003  0.0193
  160HFI     H1 2408   2.334   2.372   3.444 -0.1592  0.3840 -0.9907
  160HFI     H2 2409   2.245   2.601   3.399  0.8819 -0.1534  1.4921
  161HFI     O1 2410   0.633   1.541   2.473 -0.0843 -1.0313 -0.5441
  161HFI     C1 2411   0.502   1.517   2.399 -0.7384 -0.4832  0.0349
  161HFI     C2 2412   0.514   1.381   2.321  0.0163  0.3432 -0.3969
  161HFI     F1 2413   0.530   1.275   2.409 -0.4570 -0.2074 -0.1445
  161HFI     F2 2414   0.620   1.383   2.237 -0.1712  0.6555  0.3688
  161HFI     F3 2415   0.408   1.355   2.243 -0.1322  0.0322  0.1830
  161HFI     C3 2416   0.470   1.642   2.305  0.2915 -0.4117  0.2718
  161HFI     F4 2417   0.444   1.754   2.376 -0.3041  0.4666 -0.2455
  161HFI     F5 2418   0.359   1.632   2.229  0.0045 -0.0726 -0.0907
  161HFI     F6 2419   0.574   1.668   2.222 -0.5311  0.0340 -0.6916
  161HFI     H1 2420   0.696   1.567   2.404  2.0010 -1.0821  1.2550
  161HFI     H2 2421   0.423   1.507   2.474 -0.3456  1.2023  0.7095
  162HFI     O1 2422   1.288   0.639   2.420 -0.3224 -0.8358 -0.4301
  162HFI     C1 2423   1.379   0.519   2.431  0.7611 -0.2722 -0.0509
  162HFI     C2 2424   1.520   0.575   2.467  0.5949  0.5480 -0.5193
  162HFI     F1 2425   1.610   0.470   2.481  0.0412  0.4059 -0.1597
  162HFI     F2 2426   1.510   0.645   2.584 -0.3166  0.0817  0.0569
  162HFI     F3 2427   1.568   0.654   2.375  0.1070 -0.0567  0.2002
  162HFI     C3 2428   1.371   0.425   2.301 -0.0584  1.1188 -0.4846
  162HFI     F4 2429   1.439   0.316   2.303  0.1623  0.4679  0.0186
  162HFI     F5 2430   1.413   0.487   2.192  0.3044  0.0844  0.1138
  162HFI     F6 2431   1.243   0.392   2.277  0.6635  0.0752  0.3331
  162HFI     H1 2432   1.312   0.697   2.345 -1.5717  0.3456  0.0579
  162HFI     H2 2433   1.342   0.456   2.513  0.7241  0.0029  0.1433
  163HFI     O1 2434   1.007   2.187   3.117 -0.0925  0.3903 -0.1945
  163HFI     C1 2435   0.892   2.221   3.034  0.7071 -0.2756 -0.2061
  163HFI     C2 2436   0.884   2.380   3.033  0.5312  0.7180 -0.1229
  163HFI     F1 2437   0.778   2.420   2.960 -0.2066  0.4223  0.2128
  163HFI     F2 2438   0.996   2.426   2.967 -0.4437 -0.0476  0.2106
  163HFI     F3 2439   0.872   2.434   3.155  0.3370  0.0533  0.0739
  163HFI     C3 2440   0.765   2.154   3.079 -0.4372 -0.8472  0.0485
  163HFI     F4 2441   0.662   2.197   3.000 -0.2117  0.0146  0.0227
  163HFI     F5 2442   0.730   2.181   3.204 -0.1689 -0.3383  0.2260
  163HFI     F6 2443   0.780   2.020   3.071 -0.0654 -0.5088  0.1724
  163HFI     H1 2444   1.088   2.190   3.063 -0.1521 -3.4366 -0.5993
  163HFI     H2 2445   0.912   2.186   2.931 -1.1347 -0.9132 -0.3531
  164HFI     O1 2446   2.621   3.301   1.004 -0.2717  0.9091  0.0302
  164HFI     C1 2447   2.499   3.357   1.061  0.2014  0.0188 -0.2407
  164HFI     C2 2448   2.385   3.247   1.054  0.2114 -0.5114 -0.3878
  164HFI     F1 2449   2.419   3.140   1.126  0.6554 -0.1608 -0.2487
  164HFI     F2 2450   2.368   3.201   0.924  0.4665 -0.7722  0.1969
  164HFI     F3 2451   2.267   3.291   1.102  0.0750  0.7207 -0.1761
  164HFI     C3 2452   2.467   3.494   0.988 -1.1155  0.8118 -0.0830
  164HFI     F4 2453   2.434   3.482   0.855  0.8831  0.1953 -0.1506
  164HFI     F5 2454   2.567   3.583   0.991  0.1075  0.1674 -0.0943
  164HFI     F6 2455   2.355   3.552   1.045  0.0778 -0.0962  0.0453
  164HFI     H1 2456   2.609   3.208   0.978 -0.5720  0.6663  0.9954
  164HFI     H2 2457   2.511   3.384   1.166  1.8345  0.0231 -0.4265
  165HFI     O1 2458   0.274   0.770   3.523 -0.5215 -0.3410 -0.2467
  165HFI     C1 2459   0.350   0.842   3.419  0.1438 -0.4802  0.0800
  165HFI     C2 2460   0.248   0.922   3.333  0.1378 -0.0281  0.4238
  165HFI     F1 2461   0.154   0.991   3.405 -0.3163 -0.5061  0.0956
  165HFI     F2 2462   0.176   0.845   3.241 -0.1140  0.0706  0.1284
  165HFI     F3 2463   0.308   1.019   3.260  0.2411  0.2007  0.3597
  165HFI     C3 2464   0.446   0.749   3.334  0.1929  0.4168 -0.1276
  165HFI     F4 2465   0.507   0.811   3.228  0.0684 -0.1381 -0.0240
  165HFI     F5 2466   0.373   0.646   3.272  0.1700 -0.1594 -0.2185
  165HFI     F6 2467   0.537   0.695   3.408 -0.2355 -0.1998 -0.5009
  165HFI     H1 2468   0.184   0.753   3.490 -0.7351  1.2788 -0.5141
  165HFI     H2 2469   0.418   0.911   3.471 -0.7305 -0.8528  1.7260
  166HFI     O1 2470   2.072   2.235   2.756  0.1396 -0.1695 -0.1082
  166HFI     C1 2471   2.044   2.106   2.829  0.3118 -0.7807  0.3867
  166HFI     C2 2472   1.885   2.073   2.828  0.3673  0.2042 -0.1708
  166HFI     F1 2473   1.867   1.948   2.875 -0.1712  0.3069  0.1360
  166HFI     F2 2474   1.846   2.069   2.698  0.3138 -0.4018 -0.1393
  166HFI     F3 2475   1.798   2.158   2.895  0.6318 -0.3399  0.5063
  166HFI     C3 2476   2.100   2.109   2.975  0.0069  0.3811  0.5205
  166HFI     F4 2477   2.086   1.989   3.034  0.5296 -0.0889  0.3714
  166HFI     F5 2478   2.038   2.197   3.050 -0.2505 -0.4559 -0.3712
  166HFI     F6 2479   2.228   2.138   2.972  0.4094 -0.0387  0.0381
  166HFI     H1 2480   2.020   2.309   2.791  0.2864 -0.0384 -0.1676
  166HFI     H2 2481   2.105   2.033   2.775 -0.5865  0.3347 -2.2159
  167HFI     O1 2482   0.004   0.758   3.588  0.2101  0.3088 -0.0573
  167HFI     C1 2483  -0.049   0.887   3.637 -0.1106 -0.1517 -0.1758
  167HFI     C2 2484  -0.078   0.896   3.789 -0.5092  0.1727  0.1046
  167HFI     F1 2485  -0.121   1.020   3.835  0.2679 -0.1020  0.4603
  167HFI     F2 2486   0.035   0.863   3.860  0.4466  0.1044  0.5081
  167HFI     F3 2487  -0.164   0.802   3.826  0.3262  0.2779 -0.2681
  167HFI     C3 2488  -0.148   0.959   3.552  0.6281 -0.1871  0.5156
  167HFI     F4 2489  -0.124   1.089   3.547  0.2256 -0.3636 -0.1770
  167HFI     F5 2490  -0.277   0.936   3.592 -0.7141  0.3990  0.7804
  167HFI     F6 2491  -0.151   0.913   3.427 -0.0439  0.5375  0.0148
  167HFI     H1 2492  -0.049   0.693   3.638 -0.1483 -0.5639 -1.5359
  167HFI     H2 2493   0.036   0.955   3.643  0.9146 -1.4127 -0.2418
  168HFI     O1 2494   3.400   1.919   3.450 -0.4678 -0.4642  0.2997
  168HFI     C1 2495   3.396   2.038   3.361  0.6278  0.8529  0.9451
  168HFI     C2 2496   3.321   2.148   3.427 -1.0414 -0.6980 -0.3517
  168HFI     F1 2497   3.389   2.197   3.539 -0.0051  0.2847  0.2094
  168HFI     F2 2498   3.202   2.098   3.465  0.5287  0.4432  0.4562
  168HFI     F3 2499   3.291   2.252   3.348 -0.5238 -0.1138  0.6000
  168HFI     C3 2500   3.337   1.997   3.220 -0.5899 -0.0001 -0.0711
  168HFI     F4 2501   3.201   1.981   3.227  0.1612  0.0530  0.7488
  168HFI     F5 2502   3.386   1.875   3.174 -0.1319  0.1110  0.0814
  168HFI     F6 2503   3.364   2.089   3.119 -0.0511  0.4437  0.1860
  168HFI     H1 2504   3.313   1.875   3.446 -0.3560 -0.5844 -1.2714
  168HFI     H2 2505   3.497   2.078   3.346  1.1020  0.5205  3.0350
  169HFI     O1 2506   1.315   3.186   2.644 -0.0143 -0.4957  0.4179
  169HFI     C1 2507   1.317   3.131   2.782  0.4108 -0.0983 -0.3282
  169HFI     C2 2508   1.411   3.011   2.796  0.0128 -0.1549 -0.3622
  169HFI     F1 2509   1.532   3.050   2.759 -0.1956  0.4745  0.3723
  169HFI     F2 2510   1.371   2.908   2.724 -0.3250  0.7427 -0.2228
  169HFI     F3 2511   1.425   2.969   2.927  0.4518  0.4832 -0.2898
  169HFI     C3 2512   1.173   3.115   2.841  0.1762  1.0493  0.2889
  169HFI     F4 2513   1.158   3.041   2.954 -0.3685 -0.4753 -0.0005
  169HFI     F5 2514   1.102   3.047   2.750  0.2495  0.4501 -0.4232
  169HFI     F6 2515   1.113   3.238   2.851 -0.0141 -0.1870  0.5440
  169HFI     H1 2516   1.245   3.134   2.600 -1.1409 -0.5135  2.1626
  169HFI     H2 2517   1.370   3.206   2.841  1.2498 -0.8294 -0.1447
  170HFI     O1 2518   2.416   1.378   0.026  0.0386 -0.3144  0.6193
  170HFI     C1 2519   2.547   1.350  -0.030  0.1995 -0.1959  0.6855
  170HFI     C2 2520   2.554   1.404  -0.171 -0.3641 -0.0794 -0.1867
  170HFI     F1 2521   2.477   1.338  -0.256  0.2287 -0.0022 -0.2684
  170HFI     F2 2522   2.683   1.389  -0.222 -0.5571  0.1318  0.8898
  170HFI     F3 2523   2.520   1.539  -0.170 -0.0723 -0.1492  0.0194
  170HFI     C3 2524   2.584   1.201  -0.013  0.2961  0.5526  0.3011
  170HFI     F4 2525   2.624   1.165   0.112  0.3481 -0.0796  0.4211
  170HFI     F5 2526   2.687   1.161  -0.099  0.1189 -0.0711  0.1481
  170HFI     F6 2527   2.476   1.128  -0.035 -0.6756 -0.0559  0.5884
  170HFI     H1 2528   2.360   1.299   0.018  2.4071 -1.9263 -0.7207
  170HFI     H2 2529   2.623   1.405   0.028  0.2261  1.9792 -1.3583
  171HFI     O1 2530   0.405   0.109   2.200 -0.3490 -0.5112 -0.0424
  171HFI     C1 2531   0.469   0.205   2.287  0.0162  0.0422  0.4829
  171HFI     C2 2532   0.585   0.153   2.385  0.0329  0.1349  0.0958
  171HFI     F1 2533   0.551   0.045   2.464 -0.3988  0.1941  0.9239
  171HFI     F2 2534   0.632   0.246   2.471 -0.0281  0.4229 -0.2493
  171HFI     F3 2535   0.690   0.118   2.316 -0.5414 -0.0597  0.4642
  171HFI     C3 2536   0.365   0.288   2.372 -0.3691 -0.3586  0.8903
  171HFI     F4 2537   0.427   0.393   2.419 -0.7180 -0.1161  0.3885
  171HFI     F5 2538   0.318   0.219   2.475  0.5944 -0.3688 -0.3684
  171HFI     F6 2539   0.264   0.331   2.294  0.5480  0.4905  0.3485
  171HFI     H1 2540   0.372   0.039   2.259  0.7815 -0.3048  0.8400
  171HFI     H2 2541   0.512   0.283   2.222 -0.7104 -1.0424 -1.3451
  172HFI     O1 2542   2.202   2.127   2.486  0.2307  0.1979  0.0988
  172HFI     C1 2543   2.137   2.173   2.362  0.3386  0.6205  0.8083
  172HFI     C2 2544   2.133   2.325   2.353  0.1263  0.1117  0.0529
  172HFI     F1 2545   2.061   2.362   2.242  0.2055  0.1726  0.5047
  172HFI     F2 2546   2.262   2.368   2.338  0.0965 -0.4987 -0.4837
  172HFI     F3 2547   2.080   2.382   2.464  0.4799 -0.2893  0.0212
  172HFI     C3 2548   1.994   2.115   2.346  0.5864 -0.5001 -0.1632
  172HFI     F4 2549   1.897   2.197   2.379  0.2083 -0.2315  0.5755
  172HFI     F5 2550   1.973   2.006   2.422  0.0305 -0.6176 -0.3103
  172HFI     F6 2551   1.977   2.083   2.222  0.2807  0.1820 -0.3720
  172HFI     H1 2552   2.172   2.191   2.554  0.6900  1.4811 -0.8805
  172HFI     H2 2553   2.196   2.153   2.272 -2.1127  0.3257 -0.7972
  173HFI     O1 2554   3.279   0.101   1.558  0.3678  0.4247 -0.2084
  173HFI     C1 2555   3.392   0.019   1.529 -0.1475 -0.5110 -0.8118
  173HFI     C2 2556   3.488   0.088   1.430 -0.1327 -0.7937  0.1593
  173HFI     F1 2557   3.561   0.179   1.491  0.3941  0.7366  0.2537
  173HFI     F2 2558   3.418   0.147   1.336 -0.2766 -0.0069 -0.3511
  173HFI     F3 2559   3.573   0.003   1.369 -0.6734 -0.1954  0.5437
  173HFI     C3 2560   3.359  -0.130   1.491  0.2031 -0.4090 -0.4673
  173HFI     F4 2561   3.455  -0.225   1.484 -0.4323  0.1515  0.6402
  173HFI     F5 2562   3.293  -0.133   1.375  0.0577 -0.1582 -0.1900
  173HFI     F6 2563   3.262  -0.175   1.580  0.6280  0.5275 -0.3461
  173HFI     H1 2564   3.226   0.106   1.477  1.8319 -0.9972 -1.2941
  173HFI     H2 2565   3.453   0.008   1.620 -1.1829  0.5876  0.0280
  174HFI     O1 2566   3.337   2.572   2.490  0.1113 -0.3451  0.5408
  174HFI     C1 2567   3.325   2.444   2.417  0.0964  0.5183  0.4073
  174HFI     C2 2568   3.432   2.340   2.462  0.5952  0.3983  0.5493
  174HFI     F1 2569   3.418   2.228   2.387  0.0094  0.2807 -0.3149
  174HFI     F2 2570   3.412   2.309   2.591 -0.7147  0.0600  0.4759
  174HFI     F3 2571   3.552   2.392   2.435  0.0895  0.1647  0.3649
  174HFI     C3 2572   3.319   2.476   2.264  0.0286  0.2362  0.0513
  174HFI     F4 2573   3.440   2.522   2.220  0.2701  0.1044  0.0088
  174HFI     F5 2574   3.222   2.568   2.235  0.2654 -0.4190  0.4468
  174HFI     F6 2575   3.286   2.367   2.197  0.1774  0.0281 -0.3848
  174HFI     H1 2576   3.418   2.571   2.543  0.1642 -0.9067  0.4566
  174HFI     H2 2577   3.229   2.395   2.434 -0.5743  2.0940  1.3078
  175HFI     O1 2578   2.386   1.919   2.537  0.2773  0.0308  0.3664
  175HFI     C1 2579   2.499   1.926   2.443 -0.3193 -0.4473  0.1449
  175HFI     C2 2580   2.586   2.052   2.467  0.1531  0.0145 -0.7125
  175HFI     F1 2581   2.528   2.163   2.420 -0.5557 -0.2029  0.2495
  175HFI     F2 2582   2.711   2.051   2.403  0.2706  0.2723  0.0161
  175HFI     F3 2583   2.610   2.077   2.594 -0.0079  0.2726 -0.3232
  175HFI     C3 2584   2.449   1.915   2.298  0.0186  0.1708 -0.2514
  175HFI     F4 2585   2.538   1.960   2.214  0.3231 -0.2049  0.5438
  175HFI     F5 2586   2.337   1.977   2.286 -0.0776  0.2523 -0.0743
  175HFI     F6 2587   2.421   1.790   2.267 -0.3681 -0.4077 -0.1551
  175HFI     H1 2588   2.310   1.967   2.500 -1.7913  0.2395  4.6342
  175HFI     H2 2589   2.573   1.847   2.461 -1.1819 -1.1936  0.4729
  176HFI     O1 2590   2.960   2.939   2.362 -0.1915  0.2587  0.3453
  176HFI     C1 2591   3.087   2.928   2.429 -0.7447 -0.2335  0.3817
  176HFI     C2 2592   3.084   3.010   2.556 -0.2022  0.4378  0.0351
  176HFI     F1 2593   2.969   2.983   2.624  0.1707 -0.3029 -0.3219
  176HFI     F2 2594   3.100   3.141   2.526  0.1518 -0.0538 -0.1244
  176HFI     F3 2595   3.175   2.971   2.637 -0.8186 -0.1872 -0.2113
  176HFI     C3 2596   3.197   2.967   2.330  0.5905  0.7317 -0.1134
  176HFI     F4 2597   3.179   3.083   2.265  0.2790  0.1010 -0.0920
  176HFI     F5 2598   3.212   2.877   2.233  0.3326 -0.2121 -0.3770
  176HFI     F6 2599   3.311   2.978   2.396 -1.1190 -0.0400 -0.0672
  176HFI     H1 2600   2.971   2.907   2.271  1.7061  1.6931  0.0489
  176HFI     H2 2601   3.098   2.824   2.462  0.6351 -0.0785  0.4274
  177HFI     O1 2602   1.238   0.120   2.433  0.3101 -0.6515  0.0940
  177HFI     C1 2603   1.162   0.055   2.334 -0.6584  0.0401 -0.5913
  177HFI     C2 2604   1.013   0.101   2.326  0.2302 -0.7736 -0.4837
  177HFI     F1 2605   0.949   0.045   2.222  0.3257 -0.2654 -0.1048
  177HFI     F2 2606   0.998   0.244   2.326 -0.1757 -0.3266 -0.1408
  177HFI     F3 2607   0.950   0.059   2.439 -0.1733 -0.3248 -0.2038
  177HFI     C3 2608   1.191  -0.095   2.327 -0.4553  0.4562 -0.4784
  177HFI     F4 2609   1.147  -0.155   2.215 -0.4352 -0.6441 -0.3595
  177HFI     F5 2610   1.127  -0.162   2.420 -0.1572  0.0724 -0.3520
  177HFI     F6 2611   1.327  -0.122   2.345 -0.3028  0.3226  0.2475
  177HFI     H1 2612   1.226   0.067   2.514 -1.6229 -0.0976  0.1928
  177HFI     H2 2613   1.207   0.086   2.239 -1.0132  3.3359  0.2695
  178HFI     O1 2614   1.553   1.821   0.108 -0.1961  0.3598  0.5245
  178HFI     C1 2615   1.422   1.819   0.046  1.0459  0.0746  0.1960
  178HFI     C2 2616   1.373   1.966   0.011 -0.5560  0.4242  0.0788
  178HFI     F1 2617   1.333   2.033   0.113  0.2419  0.3203  0.6713
  178HFI     F2 2618   1.268   1.962  -0.079  0.1437  0.3113 -0.2480
  178HFI     F3 2619   1.472   2.045  -0.048 -0.2180  0.4481 -0.0456
  178HFI     C3 2620   1.311   1.724   0.110  1.0819 -0.6253  0.0597
  178HFI     F4 2621   1.213   1.704   0.020  0.0973 -0.2978 -0.1743
  178HFI     F5 2622   1.255   1.778   0.218  0.2108 -0.1018 -0.2580
  178HFI     F6 2623   1.370   1.611   0.146 -0.1365  0.2611  0.6384
  178HFI     H1 2624   1.559   1.836   0.203  1.7389  3.1125  0.0239
  178HFI     H2 2625   1.431   1.766  -0.050 -1.7456 -0.5056  0.1848
  179HFI     O1 2626   0.277   1.999   3.091 -0.1155  0.3455 -0.1042
  179HFI     C1 2627   0.362   1.892   3.141 -0.2644  0.4939  0.2151
  179HFI     C2 2628   0.431   1.952   3.268 -0.0228 -0.5082  0.4812
  179HFI     F1 2629   0.468   2.085   3.245 -0.3941  0.0106 -0.0470
  179HFI     F2 2630   0.543   1.888   3.312 -0.1739  0.4063  0.0003
  179HFI     F3 2631   0.351   1.950   3.375  0.7435 -0.3543  0.4183
  179HFI     C3 2632   0.463   1.856   3.022  0.4191  0.3529  0.2656
  179HFI     F4 2633   0.553   1.766   3.067 -0.0109 -0.1864  0.3053
  179HFI     F5 2634   0.536   1.961   2.978  0.1906 -0.0480 -0.1543
  179HFI     F6 2635   0.409   1.797   2.920 -0.2557  0.2086 -0.4817
  179HFI     H1 2636   0.337   2.074   3.077  0.8524 -0.4708 -0.4528
  179HFI     H2 2637   0.299   1.803   3.158 -1.5814  0.9090 -2.2129
  180HFI     O1 2638   0.177   2.844   0.677 -0.0205  0.1968  0.0900
  180HFI     C1 2639   0.321   2.853   0.636 -0.0214  0.4470 -0.1668
  180HFI     C2 2640   0.346   2.969   0.533 -0.0437  0.6413 -0.0774
  180HFI     F1 2641   0.463   2.968   0.465  0.1191  0.0761 -0.2490
  180HFI     F2 2642   0.330   3.088   0.589  0.0465 -0.2846  0.6039
  180HFI     F3 2643   0.242   2.957   0.447  0.2015 -0.0550 -0.7425
  180HFI     C3 2644   0.365   2.713   0.573  0.3329 -0.0742  0.4810
  180HFI     F4 2645   0.495   2.705   0.533  0.4829 -0.0493 -0.0105
  180HFI     F5 2646   0.277   2.681   0.469 -0.4105  0.0247  0.8949
  180HFI     F6 2647   0.346   2.618   0.670  0.0123 -0.0826  0.6622
  180HFI     H1 2648   0.155   2.917   0.736 -2.6932  0.4032 -1.0763
  180HFI     H2 2649   0.373   2.873   0.730 -1.7597  0.1206  0.8867
  181HFI     O1 2650   2.573   3.392   2.962 -0.4738  0.3074 -0.1212
  181HFI     C1 2651   2.678   3.454   2.884 -0.1125  0.1278  0.7453
  181HFI     C2 2652   2.734   3.357   2.781 -0.4165 -0.8492  0.3049
  181HFI     F1 2653   2.810   3.265   2.840 -0.2537  0.1075  0.1147
  181HFI     F2 2654   2.798   3.424   2.679 -0.0787  0.1238  0.2040
  181HFI     F3 2655   2.626   3.286   2.731 -0.2740 -0.4655 -0.1485
  181HFI     C3 2656   2.786   3.529   2.971  0.9658  0.7547  0.0789
  181HFI     F4 2657   2.902   3.554   2.907 -0.0950 -0.3551  0.1489
  181HFI     F5 2658   2.815   3.455   3.079  0.4383  0.2667  0.5291
  181HFI     F6 2659   2.728   3.649   3.006  0.3374  0.5708  0.7156
  181HFI     H1 2660   2.599   3.298   2.972 -1.3517  0.1885  1.2343
  181HFI     H2 2661   2.637   3.531   2.817 -0.7750 -1.0409 -0.1990
  182HFI     O1 2662   2.996   1.811   0.029  0.2526 -0.1431  0.3486
  182HFI     C1 2663   2.861   1.836   0.076  0.0403 -0.4692  0.6623
  182HFI     C2 2664   2.842   1.777   0.222  0.0318  0.6561 -0.3876
  182HFI     F1 2665   2.851   1.644   0.224  0.0555  0.7245 -0.0001
  182HFI     F2 2666   2.728   1.814   0.279  0.7253 -0.1612  0.2022
  182HFI     F3 2667   2.941   1.826   0.301 -0.7139 -0.0194 -0.2105
  182HFI     C3 2668   2.762   1.776  -0.024 -0.1844 -0.3311  0.1534
  182HFI     F4 2669   2.775   1.638  -0.030  0.2387 -0.3390  0.2855
  182HFI     F5 2670   2.780   1.834  -0.144 -0.7066  0.2352  0.2878
  182HFI     F6 2671   2.632   1.811   0.003 -0.1009  0.6041 -0.1202
  182HFI     H1 2672   3.038   1.755   0.096  1.3875  0.2118 -0.0610
  182HFI     H2 2673   2.842   1.944   0.075  1.0578 -0.2644  1.9299
  183HFI     O1 2674   2.749   0.952   0.874 -0.2150 -0.0896 -0.4208
  183HFI     C1 2675   2.855   1.013   0.965 -0.1285 -0.2936  0.0827
  183HFI     C2 2676   2.932   0.905   1.043 -0.3209  0.0427 -0.0205
  183HFI     F1 2677   2.975   0.814   0.959 -0.4694 -0.4195  0.5897
  183HFI     F2 2678   2.856   0.844   1.138  0.0673  0.3701 -0.0180
  183HFI     F3 2679   3.032   0.956   1.111  0.4040 -0.0486  0.2005
  183HFI     C3 2680   2.779   1.125   1.055  0.3051 -0.1045  0.2563
  183HFI     F4 2681   2.716   1.074   1.162  0.0272 -0.8091 -0.3160
  183HFI     F5 2682   2.683   1.201   0.990  0.1102  0.8430  0.0417
  183HFI     F6 2683   2.869   1.212   1.104  0.0101 -0.6183  0.3551
  183HFI     H1 2684   2.755   0.855   0.880 -0.6392 -0.1929 -1.4855
  183HFI     H2 2685   2.925   1.070   0.903 -1.5625  1.1752 -0.1941
  184HFI     O1 2686   2.833   1.360   2.247 -0.1832 -0.5288 -0.4399
  184HFI     C1 2687   2.739   1.423   2.346 -0.0159  0.1513 -0.3180
  184HFI     C2 2688   2.606   1.444   2.284  1.0326  0.3023 -0.4992
  184HFI     F1 2689   2.514   1.466   2.375 -0.2633  0.2660 -0.2674
  184HFI     F2 2690   2.565   1.332   2.212 -0.0131 -0.0696  0.3161
  184HFI     F3 2691   2.595   1.551   2.205  0.1590  0.4484  0.1625
  184HFI     C3 2692   2.801   1.558   2.409  0.2245 -0.0355  0.7549
  184HFI     F4 2693   2.822   1.648   2.309  0.3622  0.1290  0.2044
  184HFI     F5 2694   2.920   1.520   2.458 -0.8716 -0.2941 -0.1750
  184HFI     F6 2695   2.738   1.620   2.507  0.3435  0.2337 -0.0784
  184HFI     H1 2696   2.919   1.406   2.251  0.2523 -1.2548 -1.2977
  184HFI     H2 2697   2.725   1.352   2.428 -0.2579  0.1584 -0.3511
  185HFI     O1 2698   1.470   3.091   2.210  0.0571  0.5023  0.5721
  185HFI     C1 2699   1.443   2.963   2.269 -0.1967  0.3823 -0.1048
  185HFI     C2 2700   1.300   2.940   2.326  0.4889 -0.6328  0.4805
  185HFI     F1 2701   1.221   2.966   2.221 -0.4665  0.3621  0.3168
  185HFI     F2 2702   1.269   3.026   2.423  0.0611 -0.3140 -0.0781
  185HFI     F3 2703   1.277   2.811   2.368  0.0792 -0.2923  0.0336
  185HFI     C3 2704   1.549   2.935   2.375 -0.0046 -0.2899 -0.3196
  185HFI     F4 2705   1.670   2.937   2.317  0.2901 -0.1232 -0.0803
  185HFI     F5 2706   1.541   2.804   2.421  0.7398  0.0530  0.0346
  185HFI     F6 2707   1.553   3.022   2.482 -0.6463 -0.5571 -0.2974
  185HFI     H1 2708   1.403   3.150   2.250 -0.6427  0.1200 -0.0320
  185HFI     H2 2709   1.460   2.888   2.191 -0.5807  2.3795 -2.1341
  186HFI     O1 2710   0.623   2.743   2.357 -0.3834  0.3137  0.1244
  186HFI     C1 2711   0.476   2.737   2.376 -0.2838  0.1103  0.2336
  186HFI     C2 2712   0.435   2.778   2.521 -0.2074 -0.4930 -0.2420
  186HFI     F1 2713   0.315   2.738   2.559  0.1185  0.1722  0.2575
  186HFI     F2 2714   0.444   2.912   2.541 -0.0581  1.1197  0.3217
  186HFI     F3 2715   0.524   2.725   2.613 -0.0206 -0.1826 -0.2170
  186HFI     C3 2716   0.425   2.593   2.345 -0.7162  0.1619  0.6935
  186HFI     F4 2717   0.484   2.546   2.236 -0.5554  0.2223  0.6372
  186HFI     F5 2718   0.293   2.584   2.334  0.4725  0.1539 -0.2981
  186HFI     F6 2719   0.461   2.506   2.436  0.0774 -0.3682  0.4794
  186HFI     H1 2720   0.637   2.705   2.269 -1.2097  1.6469 -0.5951
  186HFI     H2 2721   0.427   2.810   2.310  2.5474  3.3626  1.6014
  187HFI     O1 2722   0.975   1.139   2.446 -0.5253 -0.6250  0.3758
  187HFI     C1 2723   1.085   1.199   2.371  0.0564  0.0266  0.0871
  187HFI     C2 2724   1.047   1.332   2.308  0.9011  0.2730  0.2758
  187HFI     F1 2725   1.015   1.412   2.410 -0.1142  0.1180 -0.4405
  187HFI     F2 2726   0.934   1.323   2.232 -0.0837  0.2834  0.3176
  187HFI     F3 2727   1.150   1.387   2.245  0.2045  0.2060 -0.3271
  187HFI     C3 2728   1.147   1.091   2.279  0.5648  0.1132 -0.3428
  187HFI     F4 2729   1.248   1.146   2.211 -0.1991  0.0376  0.2607
  187HFI     F5 2730   1.054   1.048   2.189 -0.5901  0.1104 -0.3128
  187HFI     F6 2731   1.191   0.987   2.354  0.0837 -0.6708  0.3294
  187HFI     H1 2732   0.946   1.065   2.391  0.1408  0.3029 -1.2533
  187HFI     H2 2733   1.158   1.226   2.448 -0.3991  2.7036 -0.3877
  188HFI     O1 2734   1.500   2.496   2.507  0.0317 -0.3932  0.0336
  188HFI     C1 2735   1.556   2.420   2.397 -0.1044 -0.6016  0.1789
  188HFI     C2 2736   1.647   2.497   2.304  0.7409  0.3869 -0.5549
  188HFI     F1 2737   1.738   2.568   2.377 -0.0734 -0.6948  0.1725
  188HFI     F2 2738   1.579   2.578   2.227  0.1412 -0.2749  0.0725
  188HFI     F3 2739   1.725   2.420   2.229  0.2573  0.0055 -0.1575
  188HFI     C3 2740   1.446   2.346   2.323  0.0563  0.0671 -0.5823
  188HFI     F4 2741   1.478   2.284   2.215 -0.3677 -0.2924  0.0278
  188HFI     F5 2742   1.355   2.436   2.285  0.1487 -0.7049 -0.1063
  188HFI     F6 2743   1.380   2.256   2.411  0.0818 -0.2509  0.0104
  188HFI     H1 2744   1.558   2.572   2.526  0.1967 -0.4042 -0.4245
  188HFI     H2 2745   1.616   2.344   2.449  2.8843 -0.1172 -2.4498
  189HFI     O1 2746   1.483   2.216   2.861  0.0683 -0.2288 -0.7374
  189HFI     C1 2747   1.407   2.128   2.767  0.2462  0.1522 -0.0499
  189HFI     C2 2748   1.258   2.176   2.756 -0.0229 -0.2831 -0.2207
  189HFI     F1 2749   1.173   2.111   2.674  0.1087 -0.5967 -0.0336
  189HFI     F2 2750   1.264   2.305   2.710 -0.3142 -0.4763  0.0421
  189HFI     F3 2751   1.203   2.172   2.877 -0.4707 -0.3847 -0.0236
  189HFI     C3 2752   1.420   1.976   2.789  0.2856  0.4811 -0.5577
  189HFI     F4 2753   1.547   1.937   2.800 -0.7028 -0.0963 -0.0039
  189HFI     F5 2754   1.362   1.908   2.686  0.3475 -0.1103  0.1515
  189HFI     F6 2755   1.347   1.936   2.901  0.3787  0.2061 -0.5493
  189HFI     H1 2756   1.446   2.201   2.950  1.1452  1.4937  0.0328
  189HFI     H2 2757   1.446   2.137   2.665  0.2211 -0.1494 -0.0850
  190HFI     O1 2758   2.853   0.504   3.443  0.5143 -0.1576  0.2208
  190HFI     C1 2759   2.984   0.435   3.433  0.2598 -1.3140  0.2061
  190HFI     C2 2760   2.986   0.291   3.488  0.2980 -0.1233 -0.2306
  190HFI     F1 2761   3.077   0.214   3.430 -0.2669  0.3914 -0.0920
  190HFI     F2 2762   2.870   0.224   3.484  0.0797  0.2835 -0.3251
  190HFI     F3 2763   3.001   0.290   3.619  0.0034  0.1246  0.4636
  190HFI     C3 2764   3.106   0.525   3.473  0.4016 -0.5913  0.1371
  190HFI     F4 2765   3.217   0.471   3.422 -0.4232  0.1164  0.5728
  190HFI     F5 2766   3.123   0.535   3.602  0.3736  0.1608 -0.2303
  190HFI     F6 2767   3.085   0.645   3.418  0.5249  0.4242 -0.1842
  190HFI     H1 2768   2.876   0.599   3.446  0.2343 -0.0546 -0.7391
  190HFI     H2 2769   2.998   0.423   3.325 -1.7989 -2.9781  0.0952
  191HFI     O1 2770   1.509   0.311   0.614  0.6678 -0.9884 -0.2772
  191HFI     C1 2771   1.408   0.213   0.570 -0.0246  0.0237 -0.3427
  191HFI     C2 2772   1.476   0.096   0.492  0.7501 -0.2702  0.0249
  191HFI     F1 2773   1.470   0.125   0.361  0.1872 -0.0512 -0.7648
  191HFI     F2 2774   1.421  -0.017   0.526  0.1148  0.2337  0.1002
  191HFI     F3 2775   1.608   0.086   0.531 -0.1290 -0.0294  0.1152
  191HFI     C3 2776   1.290   0.285   0.492  0.6266 -0.4028 -0.3635
  191HFI     F4 2777   1.208   0.194   0.442 -0.1469 -0.1561  0.2140
  191HFI     F5 2778   1.329   0.362   0.389 -0.1303  0.1390 -0.7731
  191HFI     F6 2779   1.221   0.362   0.578  0.2152 -0.4643  0.3702
  191HFI     H1 2780   1.537   0.364   0.537  0.6606 -0.8039 -0.1532
  191HFI     H2 2781   1.357   0.170   0.657  2.4510  0.6973  1.4815
  192HFI     O1 2782   2.901   2.304   1.407 -0.0590 -0.1524 -0.5350
  192HFI     C1 2783   2.866   2.157   1.394  0.0950 -0.2117  0.7089
  192HFI     C2 2784   2.744   2.126   1.486 -0.6663 -0.0361  0.5657
  192HFI     F1 2785   2.652   2.221   1.470 -0.4073  0.3331 -0.5439
  192HFI     F2 2786   2.777   2.120   1.615  0.3844 -0.3288 -0.0330
  192HFI     F3 2787   2.689   2.005   1.452  0.0061 -0.1146  0.2474
  192HFI     C3 2788   2.984   2.058   1.429  0.5153  0.0004 -0.2796
  192HFI     F4 2789   3.016   2.065   1.561  0.2796  0.0812  0.1210
  192HFI     F5 2790   3.091   2.086   1.360 -0.2780 -0.4629  0.5616
  192HFI     F6 2791   2.944   1.938   1.402  0.2619 -0.5997  0.2003
  192HFI     H1 2792   2.925   2.324   1.499 -1.1682 -1.7696  0.1428
  192HFI     H2 2793   2.834   2.134   1.292  1.9862 -3.1968  0.7245
  193HFI     O1 2794   1.051   0.907   2.744  0.2978  0.6966  0.2106
  193HFI     C1 2795   1.152   0.938   2.844  0.1753  0.6739  0.3658
  193HFI     C2 2796   1.297   0.957   2.782  0.0927 -0.6994 -0.5453
  193HFI     F1 2797   1.312   1.062   2.706 -0.4214  0.7659 -0.1038
  193HFI     F2 2798   1.316   0.843   2.706  0.6470 -0.0421  0.4449
  193HFI     F3 2799   1.394   0.968   2.868 -0.6984 -0.1293  0.3124
  193HFI     C3 2800   1.151   0.851   2.968  0.0820 -0.0824  0.5076
  193HFI     F4 2801   1.020   0.833   3.008 -0.6817 -0.5928  0.0083
  193HFI     F5 2802   1.218   0.917   3.058 -0.2718  0.2615 -0.1151
  193HFI     F6 2803   1.205   0.729   2.934 -0.6219 -0.0306  0.2053
  193HFI     H1 2804   1.040   0.811   2.736 -1.3400  0.7378  1.5021
  193HFI     H2 2805   1.129   1.035   2.890  1.7521  0.3522  1.9002
  194HFI     O1 2806   2.364   2.445   1.206  0.5686  0.2411 -0.4592
  194HFI     C1 2807   2.393   2.492   1.072 -0.1673  1.0645 -0.1583
  194HFI     C2 2808   2.547   2.510   1.056  0.3622 -0.3645  0.6846
  194HFI     F1 2809   2.588   2.637   1.093 -0.0139  0.7078 -0.3835
  194HFI     F2 2810   2.581   2.483   0.928  0.4188 -0.2630 -0.8980
  194HFI     F3 2811   2.605   2.425   1.140  0.1613 -0.1868 -0.5734
  194HFI     C3 2812   2.305   2.605   1.029 -0.0504  0.7198  0.6725
  194HFI     F4 2813   2.316   2.711   1.112  0.1125  0.3260 -0.5351
  194HFI     F5 2814   2.177   2.567   1.023 -0.0826  0.0633  0.3260
  194HFI     F6 2815   2.332   2.650   0.906 -0.4246  0.0005 -0.1113
  194HFI     H1 2816   2.438   2.388   1.233  0.6445  1.6657  2.5293
  194HFI     H2 2817   2.366   2.417   0.997  3.8142 -0.3693 -0.2875
  195HFI     O1 2818   3.346   2.730   3.050 -0.2124  0.0657  0.3415
  195HFI     C1 2819   3.300   2.754   2.910  0.2089  0.2790 -0.2210
  195HFI     C2 2820   3.244   2.632   2.839  0.0556 -0.1934  0.3764
  195HFI     F1 2821   3.344   2.546   2.797  0.1908  0.1984 -0.1026
  195HFI     F2 2822   3.180   2.670   2.733 -0.3980 -0.0785 -0.6044
  195HFI     F3 2823   3.155   2.555   2.911  0.5956 -0.0812  0.5255
  195HFI     C3 2824   3.419   2.824   2.835  0.2359 -0.5146  0.2064
  195HFI     F4 2825   3.438   2.951   2.881  0.0557  0.3559  0.5598
  195HFI     F5 2826   3.391   2.833   2.710 -0.1902 -0.3761 -0.4190
  195HFI     F6 2827   3.530   2.753   2.850  0.3364  0.0824  0.0113
  195HFI     H1 2828   3.440   2.706   3.043 -0.0933  0.8344 -0.7329
  195HFI     H2 2829   3.215   2.823   2.914 -0.6264 -0.6926 -0.9585
  196HFI     O1 2830   2.746   2.324   2.213  0.7014  0.2832 -0.3312
  196HFI     C1 2831   2.732   2.429   2.312 -0.1296 -0.7747 -0.6310
  196HFI     C2 2832   2.605   2.519   2.285  0.1797  0.0633  0.1420
  196HFI     F1 2833   2.615   2.620   2.195  0.1010  0.2405  0.8209
  196HFI     F2 2834   2.563   2.565   2.410 -0.0515  0.0490  0.5194
  196HFI     F3 2835   2.509   2.430   2.244  0.1146 -0.3403 -0.3555
  196HFI     C3 2836   2.859   2.511   2.334  0.6790  0.0027 -0.1114
  196HFI     F4 2837   2.963   2.422   2.357 -0.2193 -0.1686 -0.3861
  196HFI     F5 2838   2.851   2.599   2.440  0.5077  0.1487 -0.0816
  196HFI     F6 2839   2.890   2.583   2.221 -0.0031  0.1098  0.8338
  196HFI     H1 2840   2.668   2.267   2.221  0.2241  0.9476 -0.2321
  196HFI     H2 2841   2.701   2.382   2.406 -0.9066  1.7968  0.4412
  197HFI     O1 2842   1.562   3.120   3.399  0.3175 -0.1766 -0.3168
  197HFI     C1 2843   1.463   3.203   3.352 -0.3933 -0.2995  0.1465
  197HFI     C2 2844   1.444   3.180   3.202 -0.3270  0.5891  0.2121
  197HFI     F1 2845   1.562   3.208   3.136  0.5372  0.1449  0.3251
  197HFI     F2 2846   1.339   3.248   3.140 -0.3232  0.1060 -0.0914
  197HFI     F3 2847   1.427   3.042   3.176  0.3871 -0.2381  0.6542
  197HFI     C3 2848   1.492   3.359   3.372  0.6366  0.7583  0.8495
  197HFI     F4 2849   1.407   3.440   3.296 -0.0529  0.2008 -0.6158
  197HFI     F5 2850   1.621   3.391   3.332  0.2051  0.4011  0.5420
  197HFI     F6 2851   1.479   3.397   3.503  0.0859 -0.3317  0.4833
  197HFI     H1 2852   1.650   3.162   3.398  0.4168 -0.3908 -0.8707
  197HFI     H2 2853   1.365   3.183   3.395 -0.7660 -1.7538 -1.3146
  198HFI     O1 2854   1.660   0.945   3.662  0.3558  0.1833  0.1906
  198HFI     C1 2855   1.598   0.818   3.703 -0.2981 -0.0841 -0.3035
  198HFI     C2 2856   1.558   0.826   3.850  0.1030 -0.0969  0.5265
  198HFI     F1 2857   1.476   0.936   3.868 -0.0390 -0.0016  0.0880
  198HFI     F2 2858   1.673   0.833   3.930 -0.6823 -0.1006  0.2011
  198HFI     F3 2859   1.487   0.714   3.898 -0.3045  0.5378 -0.2115
  198HFI     C3 2860   1.696   0.703   3.664  0.3022  0.0914  0.0963
  198HFI     F4 2861   1.740   0.710   3.538  0.4838 -0.0716 -0.3559
  198HFI     F5 2862   1.642   0.574   3.680 -0.1902 -0.4090  0.4754
  198HFI     F6 2863   1.808   0.707   3.733  0.5299  0.4532 -0.0450
  198HFI     H1 2864   1.696   0.994   3.737  1.0861 -0.3797  0.2115
  198HFI     H2 2865   1.503   0.801   3.652 -1.2890 -0.5510  1.6388
  199HFI     O1 2866   2.703   3.269   0.378  0.4081 -0.1085 -0.0563
  199HFI     C1 2867   2.744   3.210   0.502 -0.4824 -0.7258  0.0711
  199HFI     C2 2868   2.661   3.246   0.625  0.7899 -0.5982 -0.0407
  199HFI     F1 2869   2.660   3.382   0.642 -0.0123 -0.2711 -0.6035
  199HFI     F2 2870   2.701   3.186   0.735  0.4403 -0.2020  0.1435
  199HFI     F3 2871   2.534   3.203   0.595 -0.4558 -0.1016  0.7793
  199HFI     C3 2872   2.896   3.233   0.532 -0.6679  0.3836  0.7706
  199HFI     F4 2873   2.938   3.145   0.626  0.4719  0.5078  0.2828
  199HFI     F5 2874   2.926   3.363   0.568  0.5187  0.1092 -0.4445
  199HFI     F6 2875   2.966   3.206   0.424  0.5013 -0.1225  0.3195
  199HFI     H1 2876   2.608   3.290   0.374  0.1867 -1.0689 -0.0594
  199HFI     H2 2877   2.734   3.101   0.497 -0.6059 -0.8042  1.8479
  200HFI     O1 2878   2.149   3.268   2.516 -0.5730 -0.7960  0.3048
  200HFI     C1 2879   2.171   3.385   2.431 -0.3355  0.6722  0.5876
  200HFI     C2 2880   2.049   3.400   2.337 -0.0558  0.0172 -0.1982
  200HFI     F1 2881   1.938   3.410   2.410  0.0404  0.3758  0.5935
  200HFI     F2 2882   2.042   3.298   2.251  0.2270 -0.5008  0.0969
  200HFI     F3 2883   2.057   3.517   2.261  0.0451  0.4465  0.2228
  200HFI     C3 2884   2.307   3.383   2.358 -0.0140  0.4797  0.0804
  200HFI     F4 2885   2.317   3.277   2.278 -0.1681 -0.2376  0.4151
  200HFI     F5 2886   2.410   3.370   2.448 -0.0529 -0.0850 -0.0981
  200HFI     F6 2887   2.329   3.494   2.288  0.8273  0.3133  0.0197
  200HFI     H1 2888   2.153   3.183   2.469 -0.6851  0.0137 -1.1738
  200HFI     H2 2889   2.177   3.477   2.491 -0.9634  2.2596 -1.7293
  201HFI     O1 2890   2.755   3.112   0.121 -0.1877  0.5240 -0.2518
  201HFI     C1 2891   2.808   3.163  -0.004  0.6712 -0.1060  0.3662
  201HFI     C2 2892   2.841   3.316   0.002  0.3050 -0.1335  0.6289
  201HFI     F1 2893   2.905   3.361  -0.109  0.2274 -0.0195 -0.1629
  201HFI     F2 2894   2.918   3.330   0.109 -0.0644  0.3966 -0.7132
  201HFI     F3 2895   2.730   3.388   0.021  0.0066  0.6093  0.2891
  201HFI     C3 2896   2.722   3.122  -0.125  0.0986 -0.5003 -0.2312
  201HFI     F4 2897   2.708   2.993  -0.140  0.1075 -0.3698 -0.0165
  201HFI     F5 2898   2.772   3.174  -0.233 -0.4073 -0.2713  0.7130
  201HFI     F6 2899   2.598   3.169  -0.113  0.0733 -0.4962 -0.2647
  201HFI     H1 2900   2.799   3.164   0.191 -1.8705  2.8239 -0.8547
  201HFI     H2 2901   2.907   3.118  -0.017  0.2699 -0.1653 -2.9052
  202HFI     O1 2902   2.361   2.542   2.759  0.0693  0.1493 -0.1395
  202HFI     C1 2903   2.485   2.497   2.812 -0.2394  1.0330 -0.0765
  202HFI     C2 2904   2.584   2.615   2.815 -0.2015 -0.0284  0.3466
  202HFI     F1 2905   2.527   2.709   2.891  0.1215 -0.2100  0.0899
  202HFI     F2 2906   2.620   2.664   2.690 -0.0339 -0.1342 -0.0608
  202HFI     F3 2907   2.699   2.566   2.873 -0.0416  0.7987  0.1875
  202HFI     C3 2908   2.541   2.365   2.758 -0.6061 -0.7320 -0.1140
  202HFI     F4 2909   2.625   2.307   2.852  0.4931 -0.3473 -0.3903
  202HFI     F5 2910   2.595   2.394   2.638  0.0248  0.5183 -0.0603
  202HFI     F6 2911   2.440   2.278   2.736 -0.5902  0.0365  0.2402
  202HFI     H1 2912   2.352   2.496   2.674 -0.6278  2.0376 -1.1255
  202HFI     H2 2913   2.465   2.469   2.916  0.0801 -1.4222 -0.6555
  203HFI     O1 2914   0.537   1.812   1.321  0.1364  0.6274 -0.0254
  203HFI     C1 2915   0.646   1.908   1.352  0.7221 -0.5493  0.4507
  203HFI     C2 2916   0.670   1.916   1.507  0.3058  0.4855 -0.2548
  203HFI     F1 2917   0.687   1.790   1.560 -0.5998 -0.0783  0.0457
  203HFI     F2 2918   0.562   1.978   1.558 -0.0820  0.2422  0.3805
  203HFI     F3 2919   0.777   1.994   1.534  0.2959  0.1092  0.1640
  203HFI     C3 2920   0.636   2.051   1.280 -0.9211 -0.5154  0.3522
  203HFI     F4 2921   0.643   2.032   1.147  0.2259  0.4350  0.0193
  203HFI     F5 2922   0.741   2.126   1.304  0.0526 -0.0467  0.1294
  203HFI     F6 2923   0.530   2.126   1.305  0.0767 -0.3400 -0.3985
  203HFI     H1 2924   0.539   1.749   1.395 -0.3550 -0.7440 -1.1666
  203HFI     H2 2925   0.733   1.856   1.310 -0.7548 -2.9747  0.3387
  204HFI     O1 2926   1.013   3.329   0.791  0.5564  0.5692 -0.1801
  204HFI     C1 2927   0.943   3.446   0.838 -0.5413  0.9012  0.9695
  204HFI     C2 2928   1.045   3.566   0.879  0.5600 -0.4799 -0.4777
  204HFI     F1 2929   1.088   3.550   1.004 -0.4666  0.1740  0.3146
  204HFI     F2 2930   0.988   3.687   0.870  0.2211  0.2703  0.3542
  204HFI     F3 2931   1.151   3.568   0.791  0.0305 -0.1038 -0.3563
  204HFI     C3 2932   0.854   3.404   0.968  0.0431 -0.5634  0.9089
  204HFI     F4 2933   0.927   3.350   1.072  0.1136 -0.2091  0.0680
  204HFI     F5 2934   0.766   3.308   0.937  0.2274 -0.3847 -0.1164
  204HFI     F6 2935   0.786   3.518   1.014  0.2920 -0.0077  0.0721
  204HFI     H1 2936   1.082   3.308   0.856  2.1590 -0.3363 -2.0823
  204HFI     H2 2937   0.881   3.487   0.757  0.7133  1.2459  0.1734
  205HFI     O1 2938   1.879   1.715   2.438 -0.2859 -0.1853 -0.0912
  205HFI     C1 2939   1.929   1.625   2.329  0.2097 -0.3212  0.7345
  205HFI     C2 2940   1.907   1.476   2.350  0.0117 -0.2042  0.4686
  205HFI     F1 2941   1.992   1.431   2.447  0.4046 -0.5114 -0.1361
  205HFI     F2 2942   1.925   1.402   2.237  0.1300 -0.4809 -0.4828
  205HFI     F3 2943   1.785   1.447   2.403 -0.3338 -0.1833 -0.1777
  205HFI     C3 2944   2.073   1.661   2.282  0.1953 -0.4278  0.1831
  205HFI     F4 2945   2.154   1.664   2.386  0.3416  0.2295 -0.5050
  205HFI     F5 2946   2.079   1.789   2.228 -0.1165  0.6724 -0.0247
  205HFI     F6 2947   2.126   1.574   2.194  0.0635  0.0034  0.0302
  205HFI     H1 2948   1.928   1.688   2.517 -1.8961 -0.0406  0.9763
  205HFI     H2 2949   1.875   1.651   2.237  2.7233  3.8883  0.3133
  206HFI     O1 2950   1.982   2.719   3.332 -0.2445 -0.2974  0.0098
  206HFI     C1 2951   1.842   2.705   3.313  0.5498  0.7827  0.4562
  206HFI     C2 2952   1.762   2.776   3.427 -0.3888 -0.0214 -0.1622
  206HFI     F1 2953   1.772   2.722   3.546  0.1288 -0.1712  0.4857
  206HFI     F2 2954   1.637   2.771   3.393 -0.6100  0.3323  0.3171
  206HFI     F3 2955   1.799   2.907   3.439 -0.1176  0.0982  0.2513
  206HFI     C3 2956   1.807   2.554   3.286  0.7875 -0.0170  0.7346
  206HFI     F4 2957   1.851   2.470   3.382  0.2327 -0.0687 -0.3781
  206HFI     F5 2958   1.871   2.510   3.171  0.3349  0.5633 -0.7903
  206HFI     F6 2959   1.671   2.536   3.276  0.1642  0.3694  0.1508
  206HFI     H1 2960   2.021   2.782   3.269  1.5049 -0.6027  0.7586
  206HFI     H2 2961   1.810   2.743   3.214 -0.4610 -2.5270 -0.5377
  207HFI     O1 2962   3.039   1.731   2.992  0.2597 -0.5655  0.8121
  207HFI     C1 2963   2.990   1.616   2.925 -0.4400  0.3005  0.3354
  207HFI     C2 2964   3.111   1.533   2.864  0.7198  0.9301  1.4958
  207HFI     F1 2965   3.179   1.599   2.767 -0.1790 -0.7544 -0.1249
  207HFI     F2 2966   3.071   1.407   2.817  0.4595  0.3034 -0.1876
  207HFI     F3 2967   3.209   1.504   2.962 -0.2983  0.3582 -0.3375
  207HFI     C3 2968   2.879   1.641   2.828 -0.0407  0.1108 -0.0925
  207HFI     F4 2969   2.828   1.521   2.777 -0.3603  0.0889 -0.1689
  207HFI     F5 2970   2.927   1.710   2.723 -0.5295  0.3418 -0.0828
  207HFI     F6 2971   2.777   1.714   2.878 -0.1852 -0.3518  0.1134
  207HFI     H1 2972   3.122   1.756   2.950 -0.3341  0.6618  0.3321
  207HFI     H2 2973   2.933   1.551   2.993 -0.6873  0.1505 -0.0133
  208HFI     O1 2974   1.627   1.793   2.485 -0.2293  0.5612  0.1764
  208HFI     C1 2975   1.528   1.815   2.370 -1.0096  0.6663 -0.2393
  208HFI     C2 2976   1.507   1.684   2.295  0.3991 -0.7853 -0.2379
  208HFI     F1 2977   1.619   1.642   2.239 -0.3871 -0.0793 -0.3018
  208HFI     F2 2978   1.407   1.702   2.202 -0.2372  0.5539 -0.4280
  208HFI     F3 2979   1.465   1.578   2.371 -0.6135 -0.3860  0.1385
  208HFI     C3 2980   1.566   1.936   2.281  0.0060 -0.2206  0.4049
  208HFI     F4 2981   1.567   2.054   2.352 -0.1841  0.3142  0.6942
  208HFI     F5 2982   1.477   1.952   2.184 -0.3771  0.0426 -0.0713
  208HFI     F6 2983   1.689   1.914   2.223  0.1991 -0.7705 -0.1781
  208HFI     H1 2984   1.715   1.770   2.450 -1.3679 -0.5363 -2.0174
  208HFI     H2 2985   1.431   1.840   2.414 -0.4028 -0.4113  1.7757
  209HFI     O1 2986   1.377   1.809   3.486  0.5171  0.0390  0.1339
  209HFI     C1 2987   1.287   1.763   3.387 -0.5474 -0.4938 -0.5445
  209HFI     C2 2988   1.356   1.716   3.255  0.1238  0.2828 -0.1581
  209HFI     F1 2989   1.288   1.649   3.165  0.2169 -0.4790  0.2250
  209HFI     F2 2990   1.466   1.639   3.287  0.1377  0.1922 -0.3163
  209HFI     F3 2991   1.402   1.823   3.186  0.4705  0.1040  0.2266
  209HFI     C3 2992   1.175   1.862   3.356 -0.2360  0.5034 -0.0235
  209HFI     F4 2993   1.222   1.976   3.284  0.0379 -0.0830  0.1934
  209HFI     F5 2994   1.114   1.907   3.473  0.0142 -0.6053  0.0912
  209HFI     F6 2995   1.082   1.802   3.282 -0.5248 -0.2080  0.6753
  209HFI     H1 2996   1.383   1.906   3.476  1.9491 -0.1037 -0.4084
  209HFI     H2 2997   1.248   1.667   3.424 -0.7164 -0.6324 -1.0715
  210HFI     O1 2998   0.058   1.278   3.442 -0.4002  0.2827 -0.5785
  210HFI     C1 2999   0.096   1.372   3.342 -0.4593 -0.0819  0.1128
  210HFI     C2 3000   0.127   1.514   3.403  0.7140  0.7110 -0.5226
  210HFI     F1 3001   0.182   1.604   3.318 -0.3988  0.1410  0.5782
  210HFI     F2 3002   0.220   1.503   3.502  0.2530  0.3187 -0.2019
  210HFI     F3 3003   0.018   1.582   3.455 -0.0724  0.0230 -0.1102
  210HFI     C3 3004  -0.006   1.381   3.235  0.6853  0.5208 -0.1268
  210HFI     F4 3005   0.028   1.465   3.141 -0.6705  0.3764 -0.0072
  210HFI     F5 3006  -0.122   1.420   3.289  0.2511 -0.6515 -0.0436
  210HFI     F6 3007  -0.032   1.263   3.178 -0.3567 -0.2296 -0.0045
  210HFI     H1 3008   0.007   1.321   3.514 -0.8009  0.0928 -0.7455
  210HFI     H2 3009   0.193   1.345   3.298  0.7768  1.2987  1.9051
  211HFI     O1 3010   0.992   1.176   0.828  0.1308 -0.2444 -0.2382
  211HFI     C1 3011   0.971   1.121   0.695  0.0374  0.6672 -0.0037
  211HFI     C2 3012   0.833   1.180   0.653 -0.2970 -0.3230 -0.3992
  211HFI     F1 3013   0.829   1.310   0.670  0.1844  0.1444 -0.0038
  211HFI     F2 3014   0.730   1.130   0.721 -0.4830 -0.3018  0.5495
  211HFI     F3 3015   0.813   1.159   0.520 -0.1822 -0.3815 -1.1077
  211HFI     C3 3016   0.972   0.969   0.681  0.6400 -0.5055  0.3883
  211HFI     F4 3017   1.097   0.925   0.694 -0.4678 -0.4494 -0.3182
  211HFI     F5 3018   0.932   0.934   0.560 -0.1388 -0.1355  0.1797
  211HFI     F6 3019   0.892   0.910   0.766 -0.3599 -0.3896  0.2996
  211HFI     H1 3020   0.931   1.138   0.893 -0.4157 -0.8597 -1.0986
  211HFI     H2 3021   1.046   1.160   0.624 -0.1246 -1.2701 -1.2893
  212HFI     O1 3022   2.241   0.893   1.389  0.0111 -0.1375  0.3376
  212HFI     C1 3023   2.207   0.750   1.368 -0.1318 -0.1709 -0.4460
  212HFI     C2 3024   2.063   0.732   1.291  0.6039 -0.4154 -0.4330
  212HFI     F1 3025   1.968   0.764   1.375  0.6029  0.5834 -0.3028
  212HFI     F2 3026   2.033   0.605   1.252 -0.0865  0.3086 -0.3127
  212HFI     F3 3027   2.046   0.825   1.185 -0.1251 -0.0006  0.0474
  212HFI     C3 3028   2.224   0.659   1.497  0.1201  0.8831  0.8165
  212HFI     F4 3029   2.136   0.689   1.596 -0.2234  0.4513 -0.4765
  212HFI     F5 3030   2.346   0.688   1.539 -0.8844 -0.5407 -0.0055
  212HFI     F6 3031   2.223   0.527   1.479  0.0190 -0.0417 -0.3144
  212HFI     H1 3032   2.280   0.902   1.477  0.7386 -0.1465  0.0137
  212HFI     H2 3033   2.282   0.704   1.303 -0.6757 -1.0514 -0.4678
  213HFI     O1 3034   2.190   1.204   3.707 -0.5095 -0.6788 -0.1161
  213HFI     C1 3035   2.165   1.228   3.569 -0.1370  0.5946 -0.0441
  213HFI     C2 3036   2.156   1.378   3.538 -0.4532 -0.0757 -0.0935
  213HFI     F1 3037   2.031   1.418   3.552  0.3105  0.1554  0.5285
  213HFI     F2 3038   2.202   1.412   3.416  0.0769 -0.5428 -0.0659
  213HFI     F3 3039   2.226   1.453   3.627 -0.1556  0.2511 -0.1831
  213HFI     C3 3040   2.040   1.153   3.517 -0.3249  0.0719  0.5092
  213HFI     F4 3041   2.014   1.184   3.386  0.0469 -0.0722 -0.3230
  213HFI     F5 3042   1.935   1.177   3.585 -0.0238 -0.2975 -0.3839
  213HFI     F6 3043   2.070   1.018   3.529 -0.4589  0.0017  0.7645
  213HFI     H1 3044   2.109   1.226   3.755 -1.5004  0.7309 -2.3608
  213HFI     H2 3045   2.247   1.191   3.507 -0.1421 -2.5718  1.7393
  214HFI     O1 3046   3.075   1.560   0.094 -0.0043  0.2739  0.4072
  214HFI     C1 3047   3.054   1.461  -0.003  0.0052 -0.1126  0.4020
  214HFI     C2 3048   2.985   1.337   0.051 -0.2456 -0.0041  0.1442
  214HFI     F1 3049   2.874   1.353   0.132 -0.0530  0.0503  0.2846
  214HFI     F2 3050   3.079   1.261   0.117 -0.3098 -0.3471 -0.0044
  214HFI     F3 3051   2.944   1.255  -0.044 -0.1122  0.5493 -0.0256
  214HFI     C3 3052   3.177   1.435  -0.096 -0.1655 -0.0836 -0.1768
  214HFI     F4 3053   3.143   1.392  -0.221 -0.0158  0.5332  0.1600
  214HFI     F5 3054   3.284   1.344  -0.056  0.1473 -0.0749  0.1500
  214HFI     F6 3055   3.245   1.550  -0.117 -0.1439  0.1112  0.4289
  214HFI     H1 3056   3.129   1.519   0.164 -1.2065 -1.9977  0.0426
  214HFI     H2 3057   2.990   1.511  -0.078 -2.6126 -0.7176  2.1659
  215HFI     O1 3058   3.362   1.866   2.590  0.3411  0.3663 -0.0196
  215HFI     C1 3059   3.451   1.767   2.652 -0.4525 -0.0285 -0.7695
  215HFI     C2 3060   3.471   1.804   2.805 -0.0385  0.2753  0.2959
  215HFI     F1 3061   3.520   1.694   2.871  0.5827  0.2401 -0.0044
  215HFI     F2 3062   3.350   1.840   2.861 -0.1169  0.6153  0.0884
  215HFI     F3 3063   3.556   1.903   2.825 -0.0621  0.1856  0.1166
  215HFI     C3 3064   3.587   1.769   2.571  0.5029 -0.0938 -1.1551
  215HFI     F4 3065   3.628   1.895   2.542 -0.1112 -0.5089 -0.0514
  215HFI     F5 3066   3.564   1.715   2.451 -0.3409  0.1549  0.2322
  215HFI     F6 3067   3.689   1.701   2.624 -0.3638  0.4419  0.0180
  215HFI     H1 3068   3.284   1.868   2.647  0.5967 -0.3715  0.3537
  215HFI     H2 3069   3.418   1.663   2.647  0.2082 -0.2089 -1.3174
  216HFI     O1 3070   2.821   1.902   3.376 -0.2883 -0.0337  0.0792
  216HFI     C1 3071   2.863   1.776   3.304  0.4048 -0.8717 -0.1045
  216HFI     C2 3072   2.736   1.698   3.269 -0.1065 -0.0962  0.1689
  216HFI     F1 3073   2.648   1.775   3.205 -0.2286 -0.8263  0.9887
  216HFI     F2 3074   2.673   1.639   3.374 -0.7650  0.1356  0.3591
  216HFI     F3 3075   2.764   1.611   3.170 -0.5355  0.1634 -0.2675
  216HFI     C3 3076   2.974   1.691   3.374 -0.4468 -0.6279  0.9035
  216HFI     F4 3077   3.031   1.613   3.274  0.5923  0.1677 -0.1966
  216HFI     F5 3078   2.926   1.617   3.468  0.0207 -0.0479 -0.1656
  216HFI     F6 3079   3.073   1.760   3.428  0.0499  0.1467  0.1282
  216HFI     H1 3080   2.812   1.880   3.470 -2.2705 -0.5560 -0.1947
  216HFI     H2 3081   2.904   1.807   3.207  0.0419 -0.1879 -0.0420
  217HFI     O1 3082   0.792   0.639   0.979 -0.5973  0.0288 -0.1523
  217HFI     C1 3083   0.653   0.600   0.972  0.2062  0.4392 -0.3234
  217HFI     C2 3084   0.627   0.463   1.039  0.1212  0.0866  0.3460
  217HFI     F1 3085   0.496   0.435   1.045 -0.0500  1.0143 -0.1192
  217HFI     F2 3086   0.685   0.458   1.165  0.4188  0.0754  0.5030
  217HFI     F3 3087   0.688   0.371   0.971  0.1747 -0.1092  0.5069
  217HFI     C3 3088   0.591   0.627   0.830 -0.2958 -0.9217 -0.0407
  217HFI     F4 3089   0.478   0.561   0.822  0.2853  0.4109 -0.4226
  217HFI     F5 3090   0.668   0.580   0.734 -0.0004  0.3726  0.3606
  217HFI     F6 3091   0.570   0.758   0.805  0.1512 -0.1560 -0.0795
  217HFI     H1 3092   0.814   0.704   0.911 -0.5398 -1.7415 -1.8802
  217HFI     H2 3093   0.597   0.665   1.040  2.2172  0.4236  1.3760
  218HFI     O1 3094   3.361   2.658   0.442 -0.3701 -0.7926  0.2404
  218HFI     C1 3095   3.323   2.530   0.480  0.9020  0.7046  0.1047
  218HFI     C2 3096   3.375   2.487   0.621 -0.2696  0.1615 -0.3134
  218HFI     F1 3097   3.346   2.588   0.702 -1.0660  0.4536  0.2252
  218HFI     F2 3098   3.509   2.465   0.630  0.0413 -0.0950 -0.1105
  218HFI     F3 3099   3.313   2.380   0.666 -0.2407  0.0860 -0.0346
  218HFI     C3 3100   3.377   2.419   0.369  0.5996  0.4652  0.5649
  218HFI     F4 3101   3.378   2.471   0.242 -0.3024 -0.1250  0.4766
  218HFI     F5 3102   3.306   2.304   0.364 -0.1636  0.2778 -0.5655
  218HFI     F6 3103   3.509   2.375   0.389 -0.1961 -0.0447  0.1453
  218HFI     H1 3104   3.450   2.669   0.480 -0.8166 -0.6012  1.2405
  218HFI     H2 3105   3.214   2.517   0.472  1.2967 -2.8115 -0.7279
  219HFI     O1 3106   1.490   1.909   1.054  0.0266 -0.0564 -0.1219
  219HFI     C1 3107   1.383   1.998   1.023 -0.5638 -0.0442 -0.3006
  219HFI     C2 3108   1.258   1.937   0.950 -0.3059  0.3341  0.1618
  219HFI     F1 3109   1.164   2.034   0.929 -0.1820 -0.0466 -0.0843
  219HFI     F2 3110   1.201   1.837   1.025  0.5794 -0.3187 -0.2834
  219HFI     F3 3111   1.290   1.891   0.830 -0.0708  0.3018 -0.0401
  219HFI     C3 3112   1.435   2.125   0.945  0.4512 -0.7125 -0.4237
  219HFI     F4 3113   1.543   2.183   1.009  0.1857  0.0603 -0.3283
  219HFI     F5 3114   1.352   2.227   0.933  0.2426 -0.3906  0.0681
  219HFI     F6 3115   1.478   2.095   0.822  0.2623  0.0541 -0.2709
  219HFI     H1 3116   1.545   1.900   0.974  1.8614 -0.6421  1.1680
  219HFI     H2 3117   1.348   2.033   1.121 -0.0353  0.4250 -0.2796
  220HFI     O1 3118   1.998   1.613   2.656 -0.1046  0.2002  0.4833
  220HFI     C1 3119   1.931   1.556   2.772 -0.1979 -0.6706  0.0312
  220HFI     C2 3120   1.983   1.417   2.809 -0.1749  0.8165  0.4791
  220HFI     F1 3121   1.936   1.322   2.732  0.0703 -0.3465  0.1526
  220HFI     F2 3122   1.951   1.376   2.936 -0.5743  0.2311 -0.0852
  220HFI     F3 3123   2.116   1.410   2.792  0.4108  0.2416 -0.0054
  220HFI     C3 3124   1.779   1.575   2.764  0.2214 -0.6593  0.0670
  220HFI     F4 3125   1.731   1.509   2.655 -0.2088 -0.2757 -0.0271
  220HFI     F5 3126   1.730   1.703   2.748  0.2108  0.1478  0.1424
  220HFI     F6 3127   1.721   1.518   2.882 -0.2552 -0.3542  0.2344
  220HFI     H1 3128   2.095   1.603   2.665 -0.1065  1.0626  1.5687
  220HFI     H2 3129   1.967   1.618   2.855  1.0783 -1.2856 -0.0436
  221HFI     O1 3130   0.859   2.964   3.039 -0.1229  0.4689 -0.2130
  221HFI     C1 3131   0.792   2.942   2.913 -0.5863 -0.2993 -0.3057
  221HFI     C2 3132   0.638   2.955   2.930  0.8545 -0.2490 -0.2189
  221HFI     F1 3133   0.583   2.860   3.014 -0.0188 -0.1704  0.8409
  221HFI     F2 3134   0.587   2.932   2.806 -0.2933 -0.5217 -0.2145
  221HFI     F3 3135   0.597   3.081   2.963  0.2669 -0.1562  0.4863
  221HFI     C3 3136   0.842   2.811   2.850 -0.0331  0.4224  0.0238
  221HFI     F4 3137   0.770   2.703   2.887  0.7246  0.0036  0.2241
  221HFI     F5 3138   0.969   2.792   2.884  0.2962 -0.4379 -0.3997
  221HFI     F6 3139   0.827   2.810   2.712  0.4565 -0.0059  0.2800
  221HFI     H1 3140   0.925   2.894   3.055 -0.5245 -0.0049 -0.6342
  221HFI     H2 3141   0.813   3.030   2.852  2.7430 -0.6188  0.3046
  222HFI     O1 3142   0.929   0.332   2.943  0.1453  0.7070 -0.7723
  222HFI     C1 3143   1.009   0.432   2.886 -1.1008  0.1969  0.0046
  222HFI     C2 3144   0.931   0.526   2.800  0.0552 -0.2121 -0.2396
  222HFI     F1 3145   0.894   0.471   2.680  0.0272 -0.1163 -0.1616
  222HFI     F2 3146   1.003   0.635   2.763  0.1378 -0.1205  0.4886
  222HFI     F3 3147   0.816   0.576   2.853 -0.1816  0.3170 -0.1117
  222HFI     C3 3148   1.127   0.363   2.820  0.1669  0.1461 -0.4482
  222HFI     F4 3149   1.089   0.282   2.719 -0.5735  0.2645 -0.1205
  222HFI     F5 3150   1.210   0.286   2.905  0.1050  0.3566  0.5408
  222HFI     F6 3151   1.212   0.447   2.759 -0.0737 -0.1011 -0.5915
  222HFI     H1 3152   0.908   0.268   2.873 -2.6809  0.9379 -0.2125
  222HFI     H2 3153   1.052   0.493   2.966 -1.4401  2.2202 -1.3239
  223HFI     O1 3154   0.807   0.211   3.163  0.1803  0.2117 -0.6056
  223HFI     C1 3155   0.838   0.288   3.282 -0.6367 -0.5559  0.2156
  223HFI     C2 3156   0.759   0.425   3.293  0.0103  0.2381 -0.4679
  223HFI     F1 3157   0.800   0.519   3.198 -0.2221  0.3386  0.4739
  223HFI     F2 3158   0.760   0.481   3.413  0.2258 -0.1508  0.3215
  223HFI     F3 3159   0.630   0.395   3.264 -0.0727  0.0520  0.0111
  223HFI     C3 3160   0.990   0.309   3.306  0.2077  0.2431  0.1705
  223HFI     F4 3161   1.050   0.379   3.212  0.3378  0.0618  0.0686
  223HFI     F5 3162   1.049   0.190   3.310 -0.3135 -0.1701  0.7766
  223HFI     F6 3163   1.013   0.364   3.432 -0.4912 -0.5826  0.7775
  223HFI     H1 3164   0.855   0.253   3.090 -1.1374  0.0808 -1.5735
  223HFI     H2 3165   0.809   0.226   3.367  0.8921 -2.5048 -0.6494
  224HFI     O1 3166   3.119   0.965   0.591  0.4282  0.4142 -0.1436
  224HFI     C1 3167   3.078   0.878   0.480 -0.1008 -0.5881  0.3975
  224HFI     C2 3168   3.127   0.737   0.489 -0.0877  0.8980  0.4152
  224HFI     F1 3169   3.078   0.657   0.390  0.3124 -0.2228 -0.3641
  224HFI     F2 3170   3.081   0.685   0.609  0.6126  0.1464 -0.8203
  224HFI     F3 3171   3.268   0.732   0.495 -0.1142  0.3055  0.1886
  224HFI     C3 3172   3.116   0.934   0.335  0.2238 -0.4166  0.2891
  224HFI     F4 3173   3.065   1.060   0.330  0.2824  0.1122  0.4907
  224HFI     F5 3174   3.061   0.863   0.236  0.0074 -0.4569  0.1405
  224HFI     F6 3175   3.253   0.934   0.311  0.0283  0.0978 -0.2627
  224HFI     H1 3176   3.049   1.031   0.606 -0.6036 -0.5752 -0.5928
  224HFI     H2 3177   2.968   0.880   0.480 -0.0977  0.5414 -1.1182
  225HFI     O1 3178   1.734   2.669   2.618  0.3744  0.8311  0.1479
  225HFI     C1 3179   1.800   2.670   2.749 -0.6042  0.3136  0.5669
  225HFI     C2 3180   1.907   2.557   2.746 -0.5931  0.0262  0.2119
  225HFI     F1 3181   1.858   2.434   2.705 -0.2718 -0.5194  0.4699
  225HFI     F2 3182   1.963   2.538   2.875 -0.0006 -0.0245  0.3935
  225HFI     F3 3183   2.018   2.593   2.674  0.7156 -0.3467 -0.3821
  225HFI     C3 3184   1.705   2.653   2.872 -0.6323  0.5821  0.1884
  225HFI     F4 3185   1.581   2.702   2.843 -0.7760  0.2188 -0.0685
  225HFI     F5 3186   1.753   2.714   2.988 -0.7328  0.6315 -0.1198
  225HFI     F6 3187   1.684   2.525   2.898 -0.2382  0.1429 -0.0620
  225HFI     H1 3188   1.767   2.738   2.558  0.2654  0.2950 -0.5331
  225HFI     H2 3189   1.854   2.765   2.762  2.0996 -1.1076  0.1262
  226HFI     O1 3190   0.447   2.668   3.496  0.4658  0.2284 -0.2344
  226HFI     C1 3191   0.504   2.536   3.459  0.2803 -0.4660  0.9855
  226HFI     C2 3192   0.626   2.553   3.373  0.0798  0.4873 -0.8531
  226HFI     F1 3193   0.728   2.571   3.447  0.9269  0.1151  0.5221
  226HFI     F2 3194   0.613   2.661   3.300  0.3103 -0.6960 -0.0363
  226HFI     F3 3195   0.654   2.449   3.293 -0.1170  0.0017 -0.4620
  226HFI     C3 3196   0.392   2.449   3.397 -0.0306 -0.0315 -0.6649
  226HFI     F4 3197   0.353   2.504   3.278  0.0191  0.2026 -0.0871
  226HFI     F5 3198   0.281   2.442   3.483  0.1786 -0.0107  0.0384
  226HFI     F6 3199   0.429   2.321   3.369  0.1703 -0.5204 -0.1921
  226HFI     H1 3200   0.472   2.730   3.425  1.8976  1.2917  1.1460
  226HFI     H2 3201   0.528   2.480   3.550  2.4220 -0.7830  0.2473
  227HFI     O1 3202   2.141   0.979   2.257  0.2642  0.2277  0.0198
  227HFI     C1 3203   2.171   1.084   2.354 -0.3341  0.0499  0.1037
  227HFI     C2 3204   2.281   1.177   2.297 -0.1772 -0.6538  0.1670
  227HFI     F1 3205   2.399   1.106   2.270  0.4412  0.2618  0.0573
  227HFI     F2 3206   2.309   1.281   2.378  0.0972 -0.2260  0.0587
  227HFI     F3 3207   2.245   1.243   2.179 -0.3500  0.3465 -0.1759
  227HFI     C3 3208   2.219   1.020   2.490  0.3400  0.4781 -0.0433
  227HFI     F4 3209   2.256   1.111   2.580  0.3541 -0.1217  0.8465
  227HFI     F5 3210   2.314   0.933   2.472  0.9423  0.0689  0.2383
  227HFI     F6 3211   2.116   0.955   2.550  0.1852  0.0312  0.1576
  227HFI     H1 3212   2.216   0.917   2.263  1.0200  1.2307  1.2540
  227HFI     H2 3213   2.090   1.156   2.366 -1.8966 -1.4054 -1.4679
  228HFI     O1 3214   0.792   1.289   2.651  0.3952  0.3268 -0.0635
  228HFI     C1 3215   0.800   1.160   2.724 -0.7288 -0.5149  0.3690
  228HFI     C2 3216   0.695   1.060   2.670  0.2391 -0.2640  0.2152
  228HFI     F1 3217   0.728   0.936   2.704 -0.1997  0.9141 -0.1069
  228HFI     F2 3218   0.706   1.052   2.535 -0.4543  0.0556 -0.1378
  228HFI     F3 3219   0.564   1.084   2.703  0.0920  0.1370 -0.2308
  228HFI     C3 3220   0.792   1.173   2.881  0.0092  0.3639  0.3176
  228HFI     F4 3221   0.675   1.228   2.924 -0.3099 -0.0228 -0.3578
  228HFI     F5 3222   0.891   1.258   2.925  0.3270 -0.2826 -0.5194
  228HFI     F6 3223   0.806   1.050   2.938 -0.2626 -0.5176 -0.2020
  228HFI     H1 3224   0.814   1.270   2.558 -3.2502 -3.0369 -0.3507
  228HFI     H2 3225   0.902   1.123   2.710 -1.4276 -2.0629 -0.8160
   3.40320   3.43847   3.80000
