HFIP comparator n4
 3225
    1GR      C1    1   0.000   0.000   1.900  0.0000  0.0000  0.0000
    1GR      C2    2   0.142   0.000   1.900  0.0000  0.0000  0.0000
    1GR      C3    3   0.213   0.123   1.900  0.0000  0.0000  0.0000
    1GR      C4    4   0.354   0.123   1.900  0.0000  0.0000  0.0000
    1GR      C5    5   0.000   0.246   1.900  0.0000  0.0000  0.0000
    1GR      C6    6   0.142   0.246   1.900  0.0000  0.0000  0.0000
    1GR      C7    7   0.213   0.368   1.900  0.0000  0.0000  0.0000
    1GR      C8    8   0.354   0.368   1.900  0.0000  0.0000  0.0000
    1GR      C9    9   0.000   0.491   1.900  0.0000  0.0000  0.0000
    1GR     C10   10   0.142   0.491   1.900  0.0000  0.0000  0.0000
    1GR     C11   11   0.213   0.614   1.900  0.0000  0.0000  0.0000
    1GR     C12   12   0.354   0.614   1.900  0.0000  0.0000  0.0000
    1GR     C13   13   0.000   0.737   1.900  0.0000  0.0000  0.0000
    1GR     C14   14   0.142   0.737   1.900  0.0000  0.0000  0.0000
    1GR     C15   15   0.213   0.860   1.900  0.0000  0.0000  0.0000
    1GR     C16   16   0.354   0.860   1.900  0.0000  0.0000  0.0000
    1GR     C17   17   0.000   0.982   1.900  0.0000  0.0000  0.0000
    1GR     C18   18   0.142   0.982   1.900  0.0000  0.0000  0.0000
    1GR     C19   19   0.213   1.105   1.900  0.0000  0.0000  0.0000
    1GR     C20   20   0.354   1.105   1.900  0.0000  0.0000  0.0000
    1GR     C21   21   0.000   1.228   1.900  0.0000  0.0000  0.0000
    1GR     C22   22   0.142   1.228   1.900  0.0000  0.0000  0.0000
    1GR     C23   23   0.213   1.351   1.900  0.0000  0.0000  0.0000
    1GR     C24   24   0.354   1.351   1.900  0.0000  0.0000  0.0000
    1GR     C25   25   0.000   1.474   1.900  0.0000  0.0000  0.0000
    1GR     C26   26   0.142   1.474   1.900  0.0000  0.0000  0.0000
    1GR     C27   27   0.213   1.596   1.900  0.0000  0.0000  0.0000
    1GR     C28   28   0.354   1.596   1.900  0.0000  0.0000  0.0000
    1GR     C29   29   0.000   1.719   1.900  0.0000  0.0000  0.0000
    1GR     C30   30   0.142   1.719   1.900  0.0000  0.0000  0.0000
    1GR     C31   31   0.213   1.842   1.900  0.0000  0.0000  0.0000
    1GR     C32   32   0.354   1.842   1.900  0.0000  0.0000  0.0000
    1GR     C33   33   0.000   1.965   1.900  0.0000  0.0000  0.0000
    1GR     C34   34   0.142   1.965   1.900  0.0000  0.0000  0.0000
    1GR     C35   35   0.213   2.088   1.900  0.0000  0.0000  0.0000
    1GR     C36   36   0.354   2.088   1.900  0.0000  0.0000  0.0000
    1GR     C37   37   0.000   2.210   1.900  0.0000  0.0000  0.0000
    1GR     C38   38   0.142   2.210   1.900  0.0000  0.0000  0.0000
    1GR     C39   39   0.213   2.333   1.900  0.0000  0.0000  0.0000
    1GR     C40   40   0.354   2.333   1.900  0.0000  0.0000  0.0000
    1GR     C41   41   0.000   2.456   1.900  0.0000  0.0000  0.0000
    1GR     C42   42   0.142   2.456   1.900  0.0000  0.0000  0.0000
    1GR     C43   43   0.213   2.579   1.900  0.0000  0.0000  0.0000
    1GR     C44   44   0.354   2.579   1.900  0.0000  0.0000  0.0000
    1GR     C45   45   0.000   2.702   1.900  0.0000  0.0000  0.0000
    1GR     C46   46   0.142   2.702   1.900  0.0000  0.0000  0.0000
    1GR     C47   47   0.213   2.824   1.900  0.0000  0.0000  0.0000
    1GR     C48   48   0.354   2.824   1.900  0.0000  0.0000  0.0000
    1GR     C49   49   0.000   2.947   1.900  0.0000  0.0000  0.0000
    1GR     C50   50   0.142   2.947   1.900  0.0000  0.0000  0.0000
    1GR     C51   51   0.213   3.070   1.900  0.0000  0.0000  0.0000
    1GR     C52   52   0.354   3.070   1.900  0.0000  0.0000  0.0000
    1GR     C53   53   0.000   3.193   1.900  0.0000  0.0000  0.0000
    1GR     C54   54   0.142   3.193   1.900  0.0000  0.0000  0.0000
    1GR     C55   55   0.213   3.316   1.900  0.0000  0.0000  0.0000
    1GR     C56   56   0.354   3.316   1.900  0.0000  0.0000  0.0000
    1GR     C57   57   0.425   0.000   1.900  0.0000  0.0000  0.0000
    1GR     C58   58   0.567   0.000   1.900  0.0000  0.0000  0.0000
    1GR     C59   59   0.638   0.123   1.900  0.0000  0.0000  0.0000
    1GR     C60   60   0.780   0.123   1.900  0.0000  0.0000  0.0000
    1GR     C61   61   0.425   0.246   1.900  0.0000  0.0000  0.0000
    1GR     C62   62   0.567   0.246   1.900  0.0000  0.0000  0.0000
    1GR     C63   63   0.638   0.368   1.900  0.0000  0.0000  0.0000
    1GR     C64   64   0.780   0.368   1.900  0.0000  0.0000  0.0000
    1GR     C65   65   0.425   0.491   1.900  0.0000  0.0000  0.0000
    1GR     C66   66   0.567   0.491   1.900  0.0000  0.0000  0.0000
    1GR     C67   67   0.638   0.614   1.900  0.0000  0.0000  0.0000
    1GR     C68   68   0.780   0.614   1.900  0.0000  0.0000  0.0000
    1GR     C69   69   0.425   0.737   1.900  0.0000  0.0000  0.0000
    1GR     C70   70   0.567   0.737   1.900  0.0000  0.0000  0.0000
    1GR     C71   71   0.638   0.860   1.900  0.0000  0.0000  0.0000
    1GR     C72   72   0.780   0.860   1.900  0.0000  0.0000  0.0000
    1GR     C73   73   0.425   0.982   1.900  0.0000  0.0000  0.0000
    1GR     C74   74   0.567   0.982   1.900  0.0000  0.0000  0.0000
    1GR     C75   75   0.638   1.105   1.900  0.0000  0.0000  0.0000
    1GR     C76   76   0.780   1.105   1.900  0.0000  0.0000  0.0000
    1GR     C77   77   0.425   1.228   1.900  0.0000  0.0000  0.0000
    1GR     C78   78   0.567   1.228   1.900  0.0000  0.0000  0.0000
    1GR     C79   79   0.638   1.351   1.900  0.0000  0.0000  0.0000
    1GR     C80   80   0.780   1.351   1.900  0.0000  0.0000  0.0000
    1GR     C81   81   0.425   1.474   1.900  0.0000  0.0000  0.0000
    1GR     C82   82   0.567   1.474   1.900  0.0000  0.0000  0.0000
    1GR     C83   83   0.638   1.596   1.900  0.0000  0.0000  0.0000
    1GR     C84   84   0.780   1.596   1.900  0.0000  0.0000  0.0000
    1GR     C85   85   0.425   1.719   1.900  0.0000  0.0000  0.0000
    1GR     C86   86   0.567   1.719   1.900  0.0000  0.0000  0.0000
    1GR     C87   87   0.638   1.842   1.900  0.0000  0.0000  0.0000
    1GR     C88   88   0.780   1.842   1.900  0.0000  0.0000  0.0000
    1GR     C89   89   0.425   1.965   1.900  0.0000  0.0000  0.0000
    1GR     C90   90   0.567   1.965   1.900  0.0000  0.0000  0.0000
    1GR     C91   91   0.638   2.088   1.900  0.0000  0.0000  0.0000
    1GR     C92   92   0.780   2.088   1.900  0.0000  0.0000  0.0000
    1GR     C93   93   0.425   2.210   1.900  0.0000  0.0000  0.0000
    1GR     C94   94   0.567   2.210   1.900  0.0000  0.0000  0.0000
    1GR     C95   95   0.638   2.333   1.900  0.0000  0.0000  0.0000
    1GR     C96   96   0.780   2.333   1.900  0.0000  0.0000  0.0000
    1GR     C97   97   0.425   2.456   1.900  0.0000  0.0000  0.0000
    1GR     C98   98   0.567   2.456   1.900  0.0000  0.0000  0.0000
    1GR     C99   99   0.638   2.579   1.900  0.0000  0.0000  0.0000
    1GR    C100  100   0.780   2.579   1.900  0.0000  0.0000  0.0000
    1GR    C101  101   0.425   2.702   1.900  0.0000  0.0000  0.0000
    1GR    C102  102   0.567   2.702   1.900  0.0000  0.0000  0.0000
    1GR    C103  103   0.638   2.824   1.900  0.0000  0.0000  0.0000
    1GR    C104  104   0.780   2.824   1.900  0.0000  0.0000  0.0000
    1GR    C105  105   0.425   2.947   1.900  0.0000  0.0000  0.0000
    1GR    C106  106   0.567   2.947   1.900  0.0000  0.0000  0.0000
    1GR    C107  107   0.638   3.070   1.900  0.0000  0.0000  0.0000
    1GR    C108  108   0.780   3.070   1.900  0.0000  0.0000  0.0000
    1GR    C109  109   0.425   3.193   1.900  0.0000  0.0000  0.0000
    1GR    C110  110   0.567   3.193   1.900  0.0000  0.0000  0.0000
    1GR    C111  111   0.638   3.316   1.900  0.0000  0.0000  0.0000
    1GR    C112  112   0.780   3.316   1.900  0.0000  0.0000  0.0000
    1GR    C113  113   0.851   0.000   1.900  0.0000  0.0000  0.0000
    1GR    C114  114   0.993   0.000   1.900  0.0000  0.0000  0.0000
    1GR    C115  115   1.064   0.123   1.900  0.0000  0.0000  0.0000
    1GR    C116  116   1.205   0.123   1.900  0.0000  0.0000  0.0000
    1GR    C117  117   0.851   0.246   1.900  0.0000  0.0000  0.0000
    1GR    C118  118   0.993   0.246   1.900  0.0000  0.0000  0.0000
    1GR    C119  119   1.064   0.368   1.900  0.0000  0.0000  0.0000
    1GR    C120  120   1.205   0.368   1.900  0.0000  0.0000  0.0000
    1GR    C121  121   0.851   0.491   1.900  0.0000  0.0000  0.0000
    1GR    C122  122   0.993   0.491   1.900  0.0000  0.0000  0.0000
    1GR    C123  123   1.064   0.614   1.900  0.0000  0.0000  0.0000
    1GR    C124  124   1.205   0.614   1.900  0.0000  0.0000  0.0000
    1GR    C125  125   0.851   0.737   1.900  0.0000  0.0000  0.0000
    1GR    C126  126   0.993   0.737   1.900  0.0000  0.0000  0.0000
    1GR    C127  127   1.064   0.860   1.900  0.0000  0.0000  0.0000
    1GR    C128  128   1.205   0.860   1.900  0.0000  0.0000  0.0000
    1GR    C129  129   0.851   0.982   1.900  0.0000  0.0000  0.0000
    1GR    C130  130   0.993   0.982   1.900  0.0000  0.0000  0.0000
    1GR    C131  131   1.064   1.105   1.900  0.0000  0.0000  0.0000
    1GR    C132  132   1.205   1.105   1.900  0.0000  0.0000  0.0000
    1GR    C133  133   0.851   1.228   1.900  0.0000  0.0000  0.0000
    1GR    C134  134   0.993   1.228   1.900  0.0000  0.0000  0.0000
    1GR    C135  135   1.064   1.351   1.900  0.0000  0.0000  0.0000
    1GR    C136  136   1.205   1.351   1.900  0.0000  0.0000  0.0000
    1GR    C137  137   0.851   1.474   1.900  0.0000  0.0000  0.0000
    1GR    C138  138   0.993   1.474   1.900  0.0000  0.0000  0.0000
    1GR    C139  139   1.064   1.596   1.900  0.0000  0.0000  0.0000
    1GR    C140  140   1.205   1.596   1.900  0.0000  0.0000  0.0000
    1GR    C141  141   0.851   1.719   1.900  0.0000  0.0000  0.0000
    1GR    C142  142   0.993   1.719   1.900  0.0000  0.0000  0.0000
    1GR    C143  143   1.064   1.842   1.900  0.0000  0.0000  0.0000
    1GR    C144  144   1.205   1.842   1.900  0.0000  0.0000  0.0000
    1GR    C145  145   0.851   1.965   1.900  0.0000  0.0000  0.0000
    1GR    C146  146   0.993   1.965   1.900  0.0000  0.0000  0.0000
    1GR    C147  147   1.064   2.088   1.900  0.0000  0.0000  0.0000
    1GR    C148  148   1.205   2.088   1.900  0.0000  0.0000  0.0000
    1GR    C149  149   0.851   2.210   1.900  0.0000  0.0000  0.0000
    1GR    C150  150   0.993   2.210   1.900  0.0000  0.0000  0.0000
    1GR    C151  151   1.064   2.333   1.900  0.0000  0.0000  0.0000
    1GR    C152  152   1.205   2.333   1.900  0.0000  0.0000  0.0000
    1GR    C153  153   0.851   2.456   1.900  0.0000  0.0000  0.0000
    1GR    C154  154   0.993   2.456   1.900  0.0000  0.0000  0.0000
    1GR    C155  155   1.064   2.579   1.900  0.0000  0.0000  0.0000
    1GR    C156  156   1.205   2.579   1.900  0.0000  0.0000  0.0000
    1GR    C157  157   0.851   2.702   1.900  0.0000  0.0000  0.0000
    1GR    C158  158   0.993   2.702   1.900  0.0000  0.0000  0.0000
    1GR    C159  159   1.064   2.824   1.900  0.0000  0.0000  0.0000
    1GR    C160  160   1.205   2.824   1.900  0.0000  0.0000  0.0000
    1GR    C161  161   0.851   2.947   1.900  0.0000  0.0000  0.0000
    1GR    C162  162   0.993   2.947   1.900  0.0000  0.0000  0.0000
    1GR    C163  163   1.064   3.070   1.900  0.0000  0.0000  0.0000
    1GR    C164  164   1.205   3.070   1.900  0.0000  0.0000  0.0000
    1GR    C165  165   0.851   3.193   1.900  0.0000  0.0000  0.0000
    1GR    C166  166   0.993   3.193   1.900  0.0000  0.0000  0.0000
    1GR    C167  167   1.064   3.316   1.900  0.0000  0.0000  0.0000
    1GR    C168  168   1.205   3.316   1.900  0.0000  0.0000  0.0000
    1GR    C169  169   1.276   0.000   1.900  0.0000  0.0000  0.0000
    1GR    C170  170   1.418   0.000   1.900  0.0000  0.0000  0.0000
    1GR    C171  171   1.489   0.123   1.900  0.0000  0.0000  0.0000
    1GR    C172  172   1.631   0.123   1.900  0.0000  0.0000  0.0000
    1GR    C173  173   1.276   0.246   1.900  0.0000  0.0000  0.0000
    1GR    C174  174   1.418   0.246   1.900  0.0000  0.0000  0.0000
    1GR    C175  175   1.489   0.368   1.900  0.0000  0.0000  0.0000
    1GR    C176  176   1.631   0.368   1.900  0.0000  0.0000  0.0000
    1GR    C177  177   1.276   0.491   1.900  0.0000  0.0000  0.0000
    1GR    C178  178   1.418   0.491   1.900  0.0000  0.0000  0.0000
    1GR    C179  179   1.489   0.614   1.900  0.0000  0.0000  0.0000
    1GR    C180  180   1.631   0.614   1.900  0.0000  0.0000  0.0000
    1GR    C181  181   1.276   0.737   1.900  0.0000  0.0000  0.0000
    1GR    C182  182   1.418   0.737   1.900  0.0000  0.0000  0.0000
    1GR    C183  183   1.489   0.860   1.900  0.0000  0.0000  0.0000
    1GR    C184  184   1.631   0.860   1.900  0.0000  0.0000  0.0000
    1GR    C185  185   1.276   0.982   1.900  0.0000  0.0000  0.0000
    1GR    C186  186   1.418   0.982   1.900  0.0000  0.0000  0.0000
    1GR    C187  187   1.489   1.105   1.900  0.0000  0.0000  0.0000
    1GR    C188  188   1.631   1.105   1.900  0.0000  0.0000  0.0000
    1GR    C189  189   1.276   1.228   1.900  0.0000  0.0000  0.0000
    1GR    C190  190   1.418   1.228   1.900  0.0000  0.0000  0.0000
    1GR    C191  191   1.489   1.351   1.900  0.0000  0.0000  0.0000
    1GR    C192  192   1.631   1.351   1.900  0.0000  0.0000  0.0000
    1GR    C193  193   1.276   1.474   1.900  0.0000  0.0000  0.0000
    1GR    C194  194   1.418   1.474   1.900  0.0000  0.0000  0.0000
    1GR    C195  195   1.489   1.596   1.900  0.0000  0.0000  0.0000
    1GR    C196  196   1.631   1.596   1.900  0.0000  0.0000  0.0000
    1GR    C197  197   1.276   1.719   1.900  0.0000  0.0000  0.0000
    1GR    C198  198   1.418   1.719   1.900  0.0000  0.0000  0.0000
    1GR    C199  199   1.489   1.842   1.900  0.0000  0.0000  0.0000
    1GR    C200  200   1.631   1.842   1.900  0.0000  0.0000  0.0000
    1GR    C201  201   1.276   1.965   1.900  0.0000  0.0000  0.0000
    1GR    C202  202   1.418   1.965   1.900  0.0000  0.0000  0.0000
    1GR    C203  203   1.489   2.088   1.900  0.0000  0.0000  0.0000
    1GR    C204  204   1.631   2.088   1.900  0.0000  0.0000  0.0000
    1GR    C205  205   1.276   2.210   1.900  0.0000  0.0000  0.0000
    1GR    C206  206   1.418   2.210   1.900  0.0000  0.0000  0.0000
    1GR    C207  207   1.489   2.333   1.900  0.0000  0.0000  0.0000
    1GR    C208  208   1.631   2.333   1.900  0.0000  0.0000  0.0000
    1GR    C209  209   1.276   2.456   1.900  0.0000  0.0000  0.0000
    1GR    C210  210   1.418   2.456   1.900  0.0000  0.0000  0.0000
    1GR    C211  211   1.489   2.579   1.900  0.0000  0.0000  0.0000
    1GR    C212  212   1.631   2.579   1.900  0.0000  0.0000  0.0000
    1GR    C213  213   1.276   2.702   1.900  0.0000  0.0000  0.0000
    1GR    C214  214   1.418   2.702   1.900  0.0000  0.0000  0.0000
    1GR    C215  215   1.489   2.824   1.900  0.0000  0.0000  0.0000
    1GR    C216  216   1.631   2.824   1.900  0.0000  0.0000  0.0000
    1GR    C217  217   1.276   2.947   1.900  0.0000  0.0000  0.0000
    1GR    C218  218   1.418   2.947   1.900  0.0000  0.0000  0.0000
    1GR    C219  219   1.489   3.070   1.900  0.0000  0.0000  0.0000
    1GR    C220  220   1.631   3.070   1.900  0.0000  0.0000  0.0000
    1GR    C221  221   1.276   3.193   1.900  0.0000  0.0000  0.0000
    1GR    C222  222   1.418   3.193   1.900  0.0000  0.0000  0.0000
    1GR    C223  223   1.489   3.316   1.900  0.0000  0.0000  0.0000
    1GR    C224  224   1.631   3.316   1.900  0.0000  0.0000  0.0000
    1GR    C225  225   1.702   0.000   1.900  0.0000  0.0000  0.0000
    1GR    C226  226   1.843   0.000   1.900  0.0000  0.0000  0.0000
    1GR    C227  227   1.914   0.123   1.900  0.0000  0.0000  0.0000
    1GR    C228  228   2.056   0.123   1.900  0.0000  0.0000  0.0000
    1GR    C229  229   1.702   0.246   1.900  0.0000  0.0000  0.0000
    1GR    C230  230   1.843   0.246   1.900  0.0000  0.0000  0.0000
    1GR    C231  231   1.914   0.368   1.900  0.0000  0.0000  0.0000
    1GR    C232  232   2.056   0.368   1.900  0.0000  0.0000  0.0000
    1GR    C233  233   1.702   0.491   1.900  0.0000  0.0000  0.0000
    1GR    C234  234   1.843   0.491   1.900  0.0000  0.0000  0.0000
    1GR    C235  235   1.914   0.614   1.900  0.0000  0.0000  0.0000
    1GR    C236  236   2.056   0.614   1.900  0.0000  0.0000  0.0000
    1GR    C237  237   1.702   0.737   1.900  0.0000  0.0000  0.0000
    1GR    C238  238   1.843   0.737   1.900  0.0000  0.0000  0.0000
    1GR    C239  239   1.914   0.860   1.900  0.0000  0.0000  0.0000
    1GR    C240  240   2.056   0.860   1.900  0.0000  0.0000  0.0000
    1GR    C241  241   1.702   0.982   1.900  0.0000  0.0000  0.0000
    1GR    C242  242   1.843   0.982   1.900  0.0000  0.0000  0.0000
    1GR    C243  243   1.914   1.105   1.900  0.0000  0.0000  0.0000
    1GR    C244  244   2.056   1.105   1.900  0.0000  0.0000  0.0000
    1GR    C245  245   1.702   1.228   1.900  0.0000  0.0000  0.0000
    1GR    C246  246   1.843   1.228   1.900  0.0000  0.0000  0.0000
    1GR    C247  247   1.914   1.351   1.900  0.0000  0.0000  0.0000
    1GR    C248  248   2.056   1.351   1.900  0.0000  0.0000  0.0000
    1GR    C249  249   1.702   1.474   1.900  0.0000  0.0000  0.0000
    1GR    C250  250   1.843   1.474   1.900  0.0000  0.0000  0.0000
    1GR    C251  251   1.914   1.596   1.900  0.0000  0.0000  0.0000
    1GR    C252  252   2.056   1.596   1.900  0.0000  0.0000  0.0000
    1GR    C253  253   1.702   1.719   1.900  0.0000  0.0000  0.0000
    1GR    C254  254   1.843   1.719   1.900  0.0000  0.0000  0.0000
    1GR    C255  255   1.914   1.842   1.900  0.0000  0.0000  0.0000
    1GR    C256  256   2.056   1.842   1.900  0.0000  0.0000  0.0000
    1GR    C257  257   1.702   1.965   1.900  0.0000  0.0000  0.0000
    1GR    C258  258   1.843   1.965   1.900  0.0000  0.0000  0.0000
    1GR    C259  259   1.914   2.088   1.900  0.0000  0.0000  0.0000
    1GR    C260  260   2.056   2.088   1.900  0.0000  0.0000  0.0000
    1GR    C261  261   1.702   2.210   1.900  0.0000  0.0000  0.0000
    1GR    C262  262   1.843   2.210   1.900  0.0000  0.0000  0.0000
    1GR    C263  263   1.914   2.333   1.900  0.0000  0.0000  0.0000
    1GR    C264  264   2.056   2.333   1.900  0.0000  0.0000  0.0000
    1GR    C265  265   1.702   2.456   1.900  0.0000  0.0000  0.0000
    1GR    C266  266   1.843   2.456   1.900  0.0000  0.0000  0.0000
    1GR    C267  267   1.914   2.579   1.900  0.0000  0.0000  0.0000
    1GR    C268  268   2.056   2.579   1.900  0.0000  0.0000  0.0000
    1GR    C269  269   1.702   2.702   1.900  0.0000  0.0000  0.0000
    1GR    C270  270   1.843   2.702   1.900  0.0000  0.0000  0.0000
    1GR    C271  271   1.914   2.824   1.900  0.0000  0.0000  0.0000
    1GR    C272  272   2.056   2.824   1.900  0.0000  0.0000  0.0000
    1GR    C273  273   1.702   2.947   1.900  0.0000  0.0000  0.0000
    1GR    C274  274   1.843   2.947   1.900  0.0000  0.0000  0.0000
    1GR    C275  275   1.914   3.070   1.900  0.0000  0.0000  0.0000
    1GR    C276  276   2.056   3.070   1.900  0.0000  0.0000  0.0000
    1GR    C277  277   1.702   3.193   1.900  0.0000  0.0000  0.0000
    1GR    C278  278   1.843   3.193   1.900  0.0000  0.0000  0.0000
    1GR    C279  279   1.914   3.316   1.900  0.0000  0.0000  0.0000
    1GR    C280  280   2.056   3.316   1.900  0.0000  0.0000  0.0000
    1GR    C281  281   2.127   0.000   1.900  0.0000  0.0000  0.0000
    1GR    C282  282   2.269   0.000   1.900  0.0000  0.0000  0.0000
    1GR    C283  283   2.340   0.123   1.900  0.0000  0.0000  0.0000
    1GR    C284  284   2.481   0.123   1.900  0.0000  0.0000  0.0000
    1GR    C285  285   2.127   0.246   1.900  0.0000  0.0000  0.0000
    1GR    C286  286   2.269   0.246   1.900  0.0000  0.0000  0.0000
    1GR    C287  287   2.340   0.368   1.900  0.0000  0.0000  0.0000
    1GR    C288  288   2.481   0.368   1.900  0.0000  0.0000  0.0000
    1GR    C289  289   2.127   0.491   1.900  0.0000  0.0000  0.0000
    1GR    C290  290   2.269   0.491   1.900  0.0000  0.0000  0.0000
    1GR    C291  291   2.340   0.614   1.900  0.0000  0.0000  0.0000
    1GR    C292  292   2.481   0.614   1.900  0.0000  0.0000  0.0000
    1GR    C293  293   2.127   0.737   1.900  0.0000  0.0000  0.0000
    1GR    C294  294   2.269   0.737   1.900  0.0000  0.0000  0.0000
    1GR    C295  295   2.340   0.860   1.900  0.0000  0.0000  0.0000
    1GR    C296  296   2.481   0.860   1.900  0.0000  0.0000  0.0000
    1GR    C297  297   2.127   0.982   1.900  0.0000  0.0000  0.0000
    1GR    C298  298   2.269   0.982   1.900  0.0000  0.0000  0.0000
    1GR    C299  299   2.340   1.105   1.900  0.0000  0.0000  0.0000
    1GR    C300  300   2.481   1.105   1.900  0.0000  0.0000  0.0000
    1GR    C301  301   2.127   1.228   1.900  0.0000  0.0000  0.0000
    1GR    C302  302   2.269   1.228   1.900  0.0000  0.0000  0.0000
    1GR    C303  303   2.340   1.351   1.900  0.0000  0.0000  0.0000
    1GR    C304  304   2.481   1.351   1.900  0.0000  0.0000  0.0000
    1GR    C305  305   2.127   1.474   1.900  0.0000  0.0000  0.0000
    1GR    C306  306   2.269   1.474   1.900  0.0000  0.0000  0.0000
    1GR    C307  307   2.340   1.596   1.900  0.0000  0.0000  0.0000
    1GR    C308  308   2.481   1.596   1.900  0.0000  0.0000  0.0000
    1GR    C309  309   2.127   1.719   1.900  0.0000  0.0000  0.0000
    1GR    C310  310   2.269   1.719   1.900  0.0000  0.0000  0.0000
    1GR    C311  311   2.340   1.842   1.900  0.0000  0.0000  0.0000
    1GR    C312  312   2.481   1.842   1.900  0.0000  0.0000  0.0000
    1GR    C313  313   2.127   1.965   1.900  0.0000  0.0000  0.0000
    1GR    C314  314   2.269   1.965   1.900  0.0000  0.0000  0.0000
    1GR    C315  315   2.340   2.088   1.900  0.0000  0.0000  0.0000
    1GR    C316  316   2.481   2.088   1.900  0.0000  0.0000  0.0000
    1GR    C317  317   2.127   2.210   1.900  0.0000  0.0000  0.0000
    1GR    C318  318   2.269   2.210   1.900  0.0000  0.0000  0.0000
    1GR    C319  319   2.340   2.333   1.900  0.0000  0.0000  0.0000
    1GR    C320  320   2.481   2.333   1.900  0.0000  0.0000  0.0000
    1GR    C321  321   2.127   2.456   1.900  0.0000  0.0000  0.0000
    1GR    C322  322   2.269   2.456   1.900  0.0000  0.0000  0.0000
    1GR    C323  323   2.340   2.579   1.900  0.0000  0.0000  0.0000
    1GR    C324  324   2.481   2.579   1.900  0.0000  0.0000  0.0000
    1GR    C325  325   2.127   2.702   1.900  0.0000  0.0000  0.0000
    1GR    C326  326   2.269   2.702   1.900  0.0000  0.0000  0.0000
    1GR    C327  327   2.340   2.824   1.900  0.0000  0.0000  0.0000
    1GR    C328  328   2.481   2.824   1.900  0.0000  0.0000  0.0000
    1GR    C329  329   2.127   2.947   1.900  0.0000  0.0000  0.0000
    1GR    C330  330   2.269   2.947   1.900  0.0000  0.0000  0.0000
    1GR    C331  331   2.340   3.070   1.900  0.0000  0.0000  0.0000
    1GR    C332  332   2.481   3.070   1.900  0.0000  0.0000  0.0000
    1GR    C333  333   2.127   3.193   1.900  0.0000  0.0000  0.0000
    1GR    C334  334   2.269   3.193   1.900  0.0000  0.0000  0.0000
    1GR    C335  335   2.340   3.316   1.900  0.0000  0.0000  0.0000
    1GR    C336  336   2.481   3.316   1.900  0.0000  0.0000  0.0000
    1GR    C337  337   2.552   0.000   1.900  0.0000  0.0000  0.0000
    1GR    C338  338   2.694   0.000   1.900  0.0000  0.0000  0.0000
    1GR    C339  339   2.765   0.123   1.900  0.0000  0.0000  0.0000
    1GR    C340  340   2.907   0.123   1.900  0.0000  0.0000  0.0000
    1GR    C341  341   2.552   0.246   1.900  0.0000  0.0000  0.0000
    1GR    C342  342   2.694   0.246   1.900  0.0000  0.0000  0.0000
    1GR    C343  343   2.765   0.368   1.900  0.0000  0.0000  0.0000
    1GR    C344  344   2.907   0.368   1.900  0.0000  0.0000  0.0000
    1GR    C345  345   2.552   0.491   1.900  0.0000  0.0000  0.0000
    1GR    C346  346   2.694   0.491   1.900  0.0000  0.0000  0.0000
    1GR    C347  347   2.765   0.614   1.900  0.0000  0.0000  0.0000
    1GR    C348  348   2.907   0.614   1.900  0.0000  0.0000  0.0000
    1GR    C349  349   2.552   0.737   1.900  0.0000  0.0000  0.0000
    1GR    C350  350   2.694   0.737   1.900  0.0000  0.0000  0.0000
    1GR    C351  351   2.765   0.860   1.900  0.0000  0.0000  0.0000
    1GR    C352  352   2.907   0.860   1.900  0.0000  0.0000  0.0000
    1GR    C353  353   2.552   0.982   1.900  0.0000  0.0000  0.0000
    1GR    C354  354   2.694   0.982   1.900  0.0000  0.0000  0.0000
    1GR    C355  355   2.765   1.105   1.900  0.0000  0.0000  0.0000
    1GR    C356  356   2.907   1.105   1.900  0.0000  0.0000  0.0000
    1GR    C357  357   2.552   1.228   1.900  0.0000  0.0000  0.0000
    1GR    C358  358   2.694   1.228   1.900  0.0000  0.0000  0.0000
    1GR    C359  359   2.765   1.351   1.900  0.0000  0.0000  0.0000
    1GR    C360  360   2.907   1.351   1.900  0.0000  0.0000  0.0000
    1GR    C361  361   2.552   1.474   1.900  0.0000  0.0000  0.0000
    1GR    C362  362   2.694   1.474   1.900  0.0000  0.0000  0.0000
    1GR    C363  363   2.765   1.596   1.900  0.0000  0.0000  0.0000
    1GR    C364  364   2.907   1.596   1.900  0.0000  0.0000  0.0000
    1GR    C365  365   2.552   1.719   1.900  0.0000  0.0000  0.0000
    1GR    C366  366   2.694   1.719   1.900  0.0000  0.0000  0.0000
    1GR    C367  367   2.765   1.842   1.900  0.0000  0.0000  0.0000
    1GR    C368  368   2.907   1.842   1.900  0.0000  0.0000  0.0000
    1GR    C369  369   2.552   1.965   1.900  0.0000  0.0000  0.0000
    1GR    C370  370   2.694   1.965   1.900  0.0000  0.0000  0.0000
    1GR    C371  371   2.765   2.088   1.900  0.0000  0.0000  0.0000
    1GR    C372  372   2.907   2.088   1.900  0.0000  0.0000  0.0000
    1GR    C373  373   2.552   2.210   1.900  0.0000  0.0000  0.0000
    1GR    C374  374   2.694   2.210   1.900  0.0000  0.0000  0.0000
    1GR    C375  375   2.765   2.333   1.900  0.0000  0.0000  0.0000
    1GR    C376  376   2.907   2.333   1.900  0.0000  0.0000  0.0000
    1GR    C377  377   2.552   2.456   1.900  0.0000  0.0000  0.0000
    1GR    C378  378   2.694   2.456   1.900  0.0000  0.0000  0.0000
    1GR    C379  379   2.765   2.579   1.900  0.0000  0.0000  0.0000
    1GR    C380  380   2.907   2.579   1.900  0.0000  0.0000  0.0000
    1GR    C381  381   2.552   2.702   1.900  0.0000  0.0000  0.0000
    1GR    C382  382   2.694   2.702   1.900  0.0000  0.0000  0.0000
    1GR    C383  383   2.765   2.824   1.900  0.0000  0.0000  0.0000
    1GR    C384  384   2.907   2.824   1.900  0.0000  0.0000  0.0000
    1GR    C385  385   2.552   2.947   1.900  0.0000  0.0000  0.0000
    1GR    C386  386   2.694   2.947   1.900  0.0000  0.0000  0.0000
    1GR    C387  387   2.765   3.070   1.900  0.0000  0.0000  0.0000
    1GR    C388  388   2.907   3.070   1.900  0.0000  0.0000  0.0000
    1GR    C389  389   2.552   3.193   1.900  0.0000  0.0000  0.0000
    1GR    C390  390   2.694   3.193   1.900  0.0000  0.0000  0.0000
    1GR    C391  391   2.765   3.316   1.900  0.0000  0.0000  0.0000
    1GR    C392  392   2.907   3.316   1.900  0.0000  0.0000  0.0000
    1GR    C393  393   2.978   0.000   1.900  0.0000  0.0000  0.0000
    1GR    C394  394   3.120   0.000   1.900  0.0000  0.0000  0.0000
    1GR    C395  395   3.191   0.123   1.900  0.0000  0.0000  0.0000
    1GR    C396  396   3.332   0.123   1.900  0.0000  0.0000  0.0000
    1GR    C397  397   2.978   0.246   1.900  0.0000  0.0000  0.0000
    1GR    C398  398   3.120   0.246   1.900  0.0000  0.0000  0.0000
    1GR    C399  399   3.191   0.368   1.900  0.0000  0.0000  0.0000
    1GR    C400  400   3.332   0.368   1.900  0.0000  0.0000  0.0000
    1GR    C401  401   2.978   0.491   1.900  0.0000  0.0000  0.0000
    1GR    C402  402   3.120   0.491   1.900  0.0000  0.0000  0.0000
    1GR    C403  403   3.191   0.614   1.900  0.0000  0.0000  0.0000
    1GR    C404  404   3.332   0.614   1.900  0.0000  0.0000  0.0000
    1GR    C405  405   2.978   0.737   1.900  0.0000  0.0000  0.0000
    1GR    C406  406   3.120   0.737   1.900  0.0000  0.0000  0.0000
    1GR    C407  407   3.191   0.860   1.900  0.0000  0.0000  0.0000
    1GR    C408  408   3.332   0.860   1.900  0.0000  0.0000  0.0000
    1GR    C409  409   2.978   0.982   1.900  0.0000  0.0000  0.0000
    1GR    C410  410   3.120   0.982   1.900  0.0000  0.0000  0.0000
    1GR    C411  411   3.191   1.105   1.900  0.0000  0.0000  0.0000
    1GR    C412  412   3.332   1.105   1.900  0.0000  0.0000  0.0000
    1GR    C413  413   2.978   1.228   1.900  0.0000  0.0000  0.0000
    1GR    C414  414   3.120   1.228   1.900  0.0000  0.0000  0.0000
    1GR    C415  415   3.191   1.351   1.900  0.0000  0.0000  0.0000
    1GR    C416  416   3.332   1.351   1.900  0.0000  0.0000  0.0000
    1GR    C417  417   2.978   1.474   1.900  0.0000  0.0000  0.0000
    1GR    C418  418   3.120   1.474   1.900  0.0000  0.0000  0.0000
    1GR    C419  419   3.191   1.596   1.900  0.0000  0.0000  0.0000
    1GR    C420  420   3.332   1.596   1.900  0.0000  0.0000  0.0000
    1GR    C421  421   2.978   1.719   1.900  0.0000  0.0000  0.0000
    1GR    C422  422   3.120   1.719   1.900  0.0000  0.0000  0.0000
    1GR    C423  423   3.191   1.842   1.900  0.0000  0.0000  0.0000
    1GR    C424  424   3.332   1.842   1.900  0.0000  0.0000  0.0000
    1GR    C425  425   2.978   1.965   1.900  0.0000  0.0000  0.0000
    1GR    C426  426   3.120   1.965   1.900  0.0000  0.0000  0.0000
    1GR    C427  427   3.191   2.088   1.900  0.0000  0.0000  0.0000
    1GR    C428  428   3.332   2.088   1.900  0.0000  0.0000  0.0000
    1GR    C429  429   2.978   2.210   1.900  0.0000  0.0000  0.0000
    1GR    C430  430   3.120   2.210   1.900  0.0000  0.0000  0.0000
    1GR    C431  431   3.191   2.333   1.900  0.0000  0.0000  0.0000
    1GR    C432  432   3.332   2.333   1.900  0.0000  0.0000  0.0000
    1GR    C433  433   2.978   2.456   1.900  0.0000  0.0000  0.0000
    1GR    C434  434   3.120   2.456   1.900  0.0000  0.0000  0.0000
    1GR    C435  435   3.191   2.579   1.900  0.0000  0.0000  0.0000
    1GR    C436  436   3.332   2.579   1.900  0.0000  0.0000  0.0000
    1GR    C437  437   2.978   2.702   1.900  0.0000  0.0000  0.0000
    1GR    C438  438   3.120   2.702   1.900  0.0000  0.0000  0.0000
    1GR    C439  439   3.191   2.824   1.900  0.0000  0.0000  0.0000
    1GR    C440  440   3.332   2.824   1.900  0.0000  0.0000  0.0000
    1GR    C441  441   2.978   2.947   1.900  0.0000  0.0000  0.0000
    1GR    C442  442   3.120   2.947   1.900  0.0000  0.0000  0.0000
    1GR    C443  443   3.191   3.070   1.900  0.0000  0.0000  0.0000
    1GR    C444  444   3.332   3.070   1.900  0.0000  0.0000  0.0000
    1GR    C445  445   2.978   3.193   1.900  0.0000  0.0000  0.0000
    1GR    C446  446   3.120   3.193   1.900  0.0000  0.0000  0.0000
    1GR    C447  447   3.191   3.316   1.900  0.0000  0.0000  0.0000
    1GR    C448  448   3.332   3.316   1.900  0.0000  0.0000  0.0000
    2PMMA   CX1  449   1.324   2.489   2.343 -0.0951  0.5832  0.3318
    2PMMA   CA2  450   1.168   2.475   2.351  0.2533  0.0041  0.2614
    2PMMA   CX3  451   1.105   2.523   2.215 -0.2624  0.3779 -0.0007
    2PMMA    C4  452   1.141   2.333   2.389 -0.0664 -0.5309 -0.5748
    2PMMA    O5  453   1.175   2.288   2.498 -0.2211 -0.3256 -0.0391
    2PMMA   OS6  454   1.049   2.269   2.306 -0.0667 -0.6363  0.6453
    2PMMA   CE7  455   1.007   2.135   2.335 -0.1001  0.5798 -0.4222
    2PMMA   CX8  456   1.121   2.572   2.475 -0.6413 -0.6180  0.2556
    2PMMA   CA9  457   0.974   2.618   2.498  1.3450 -0.5442  0.4279
    2PMMA  CX10  458   0.944   2.723   2.388  0.1698  0.2489 -0.4105
    2PMMA   C11  459   0.970   2.694   2.635  0.3943 -0.4976  0.0402
    2PMMA   O12  460   0.982   2.812   2.656 -0.4973  0.4300 -0.5967
    2PMMA  OS13  461   0.975   2.599   2.738  0.1293  0.2222 -0.6444
    2PMMA  CE14  462   0.973   2.637   2.879 -0.8352  0.2178 -0.4380
    2PMMA  CX15  463   0.871   2.499   2.499  0.9703  0.2736 -0.1112
    2PMMA  CA16  464   0.715   2.506   2.516  0.5757  0.0658 -0.6866
    2PMMA  CX17  465   0.672   2.350   2.536 -0.1576  0.1019  0.3019
    2PMMA   C18  466   0.681   2.590   2.639  0.3971 -0.4502  0.9469
    2PMMA   O19  467   0.649   2.554   2.746  0.5032 -0.8680  0.2923
    2PMMA  OS20  468   0.693   2.722   2.607  0.1540 -0.0119 -0.6420
    2PMMA  CE21  469   0.638   2.829   2.677 -0.0418 -0.0535  0.0531
    2PMMA  CX22  470   0.659   2.570   2.378 -0.6354  0.2865 -0.2954
    2PMMA  CA23  471   0.503   2.561   2.343 -0.0402 -0.4281 -0.2384
    2PMMA  CX24  472   0.416   2.623   2.455 -0.1158 -0.9330 -0.6344
    2PMMA   C25  473   0.460   2.422   2.289  0.0236  0.3488  0.0004
    2PMMA   O26  474   0.528   2.321   2.269  0.7197 -0.3220  0.1356
    2PMMA  OS27  475   0.325   2.411   2.274 -0.4478  0.1661 -0.1323
    2PMMA  CE28  476   0.258   2.292   2.239 -0.8178 -0.4155 -0.6321
    2PMMA  CX29  477   0.481   2.652   2.221  0.3477 -0.3334 -0.1174
    2PMMA  HC30  478   1.348   2.592   2.314  0.6401  0.6429  1.1475
    2PMMA  HC31  479   1.381   2.470   2.435  0.4393 -0.8772 -0.2827
    2PMMA  HC32  480   1.359   2.417   2.268 -1.5073 -0.3264  0.5290
    2PMMA  HC33  481   0.996   2.522   2.198 -0.0878 -0.0477 -1.1224
    2PMMA  HC34  482   1.150   2.457   2.140  1.3128 -0.1819  1.4207
    2PMMA  HC35  483   1.138   2.625   2.194 -0.1614  0.3611  0.0775
    2PMMA  H136  484   0.930   2.108   2.264 -0.5815 -0.8863  0.6413
    2PMMA  H137  485   0.973   2.134   2.439  2.7674 -3.2449  0.6064
    2PMMA  H138  486   1.091   2.067   2.320 -0.2523  0.5805 -1.2582
    2PMMA  HC39  487   1.153   2.531   2.571  4.3771  1.9893 -0.1357
    2PMMA  HC40  488   1.171   2.669   2.475 -1.7645 -0.0219  0.6813
    2PMMA  HC41  489   1.031   2.783   2.359  0.3501 -0.8515 -2.2387
    2PMMA  HC42  490   0.909   2.677   2.294 -0.8638  0.8043 -0.3103
    2PMMA  HC43  491   0.859   2.786   2.419 -0.1324  0.2925 -1.2898
    2PMMA  H144  492   0.869   2.657   2.906 -0.6825  2.1316 -1.1435
    2PMMA  H145  493   1.023   2.732   2.900 -0.0867 -0.5956  1.5567
    2PMMA  H146  494   1.016   2.564   2.947 -0.6391  0.6403 -0.1028
    2PMMA  HC47  495   0.893   2.441   2.409  0.6845 -0.3022  0.1890
    2PMMA  HC48  496   0.906   2.429   2.575 -1.2938 -0.1209  0.5992
    2PMMA  HC49  497   0.724   2.283   2.468 -0.7456  0.2351 -0.2802
    2PMMA  HC50  498   0.564   2.346   2.522  0.0118  0.3858 -1.0858
    2PMMA  HC51  499   0.690   2.316   2.639  0.9218 -3.3861 -0.9777
    2PMMA  H152  500   0.529   2.829   2.671 -0.0165 -2.9519 -1.0178
    2PMMA  H153  501   0.684   2.920   2.636  1.7184 -1.0372 -0.2282
    2PMMA  H154  502   0.667   2.819   2.782  0.0960  3.3781  0.4007
    2PMMA  HC55  503   0.683   2.676   2.371 -2.1033  0.6498 -0.0476
    2PMMA  HC56  504   0.705   2.529   2.288 -0.3416 -0.8739  0.3611
    2PMMA  HC57  505   0.426   2.729   2.479  3.1056 -0.6288 -2.9683
    2PMMA  HC58  506   0.310   2.612   2.432 -0.8073  2.9426  0.4340
    2PMMA  HC59  507   0.435   2.571   2.550 -0.6175 -0.6737 -0.3951
    2PMMA  H160  508   0.150   2.306   2.233 -0.8949 -1.1886 -1.1902
    2PMMA  H161  509   0.274   2.215   2.315  3.7008  1.2969  0.3065
    2PMMA  H162  510   0.294   2.257   2.142 -1.2464  0.6972 -1.1892
    2PMMA  HC63  511   0.514   2.755   2.235  1.8458 -1.0165  1.6956
    2PMMA  HC64  512   0.530   2.610   2.133  1.0860  3.1539 -1.4226
    2PMMA  HC65  513   0.375   2.664   2.198  0.3804  1.9241  0.7685
    3HFI     O1  514   1.447   0.388   0.511 -0.0592 -0.1501  0.2435
    3HFI     C1  515   1.484   0.527   0.510  0.4647  0.0717 -0.6323
    3HFI     C2  516   1.353   0.612   0.541  0.3651  0.2064  0.5159
    3HFI     F1  517   1.302   0.570   0.655 -0.6198 -0.4867  0.5689
    3HFI     F2  518   1.267   0.584   0.439  0.0590 -0.0581 -0.0162
    3HFI     F3  519   1.366   0.747   0.551  0.4154 -0.3826 -0.5658
    3HFI     C3  520   1.548   0.558   0.371 -0.3004  0.2424  0.6592
    3HFI     F4  521   1.657   0.488   0.351  0.2225 -0.7126 -0.1274
    3HFI     F5  522   1.573   0.683   0.345  0.2417  0.0099 -0.1219
    3HFI     F6  523   1.462   0.522   0.273 -0.0114  0.5857 -0.1198
    3HFI     H1  524   1.364   0.383   0.460  0.2120  0.0674 -0.2185
    3HFI     H2  525   1.556   0.554   0.588  2.7948 -0.1527 -2.6634
    4HFI     O1  526   0.638   0.546   3.287 -0.0432 -0.2996 -0.4899
    4HFI     C1  527   0.779   0.563   3.275  0.6529  0.2970  0.2958
    4HFI     C2  528   0.869   0.535   3.401 -0.2235 -1.1728  0.4208
    4HFI     F1  529   0.849   0.415   3.439 -0.0455  0.0387 -0.1711
    4HFI     F2  530   0.847   0.618   3.500  0.2353 -0.0458 -0.3809
    4HFI     F3  531   1.002   0.542   3.369  0.5680  0.4509 -0.2949
    4HFI     C3  532   0.814   0.690   3.207 -0.2328  0.0560 -0.2236
    4HFI     F4  533   0.826   0.792   3.298 -0.0151 -0.0438  0.1153
    4HFI     F5  534   0.723   0.737   3.122  0.2141 -0.2993 -0.3331
    4HFI     F6  535   0.933   0.676   3.144  0.0848 -0.3496 -0.1594
    4HFI     H1  536   0.631   0.461   3.334 -0.9081 -0.4383 -0.8834
    4HFI     H2  537   0.818   0.490   3.203  2.4521  0.7747  0.7749
    5HFI     O1  538   0.784   2.057   0.484  0.0315  0.5971  0.6445
    5HFI     C1  539   0.904   2.140   0.489  0.7609  0.2095 -0.3840
    5HFI     C2  540   0.994   2.114   0.369 -0.3448  0.2971 -0.4380
    5HFI     F1  541   1.017   1.982   0.357 -0.3381  0.0293 -0.2417
    5HFI     F2  542   1.104   2.174   0.378 -0.2843  0.4764  0.1415
    5HFI     F3  543   0.933   2.160   0.258  0.0923  0.5330  0.5084
    5HFI     C3  544   0.978   2.128   0.619 -0.7435  0.2854 -0.7051
    5HFI     F4  545   1.053   2.009   0.637 -0.2374  0.0774 -0.0870
    5HFI     F5  546   0.896   2.136   0.729  0.3833  0.2971  0.2286
    5HFI     F6  547   1.063   2.234   0.634  0.1188  0.3597  0.7262
    5HFI     H1  548   0.727   2.083   0.558  0.9508 -2.1255  2.3846
    5HFI     H2  549   0.878   2.247   0.481  2.4950  0.5911 -1.2024
    6HFI     O1  550   2.307   0.346   0.987  0.3689 -0.2313  0.3299
    6HFI     C1  551   2.302   0.204   0.953 -0.0981  0.3190 -0.1945
    6HFI     C2  552   2.378   0.120   1.050  0.1240  0.2615  0.0328
    6HFI     F1  553   2.507   0.123   1.022 -0.6361 -0.0763 -0.5187
    6HFI     F2  554   2.332  -0.012   1.046 -0.2903  0.1926  0.0894
    6HFI     F3  555   2.369   0.166   1.175  0.2402 -0.3179 -0.4059
    6HFI     C3  556   2.346   0.168   0.810  0.0094 -0.5522 -0.1047
    6HFI     F4  557   2.460   0.218   0.770  0.6222  0.3725  0.0577
    6HFI     F5  558   2.251   0.214   0.723  0.1806  0.1398  0.4159
    6HFI     F6  559   2.349   0.032   0.785 -0.1572 -0.4897 -0.0200
    6HFI     H1  560   2.394   0.357   1.028  0.1631  0.1623  0.6583
    6HFI     H2  561   2.203   0.156   0.959  0.7666 -1.3887  0.8032
    7HFI     O1  562   0.956   2.262   3.459  0.1874  0.1672  0.0821
    7HFI     C1  563   0.961   2.382   3.536  0.3404 -0.6857 -0.6033
    7HFI     C2  564   0.980   2.354   3.690  0.3932 -0.3424  0.5897
    7HFI     F1  565   0.865   2.328   3.750 -0.1434  0.2347 -0.0615
    7HFI     F2  566   1.040   2.457   3.754 -0.3846 -0.5082  0.4016
    7HFI     F3  567   1.057   2.244   3.704 -0.0017  0.4455  0.0976
    7HFI     C3  568   0.846   2.485   3.507 -0.3182  0.3056  0.1450
    7HFI     F4  569   0.838   2.513   3.378 -0.1937 -0.2650 -0.6933
    7HFI     F5  570   0.855   2.600   3.575 -0.9929  0.7134 -0.3238
    7HFI     F6  571   0.727   2.426   3.529  0.2866 -0.3544 -0.3063
    7HFI     H1  572   0.867   2.224   3.463 -0.3976  1.6558  1.7399
    7HFI     H2  573   1.049   2.442   3.509  1.2086 -1.3567  0.6647
    8HFI     O1  574   0.627   2.459   0.826  0.2412  0.0832 -0.8236
    8HFI     C1  575   0.739   2.500   0.907  0.5804  0.2000  0.6910
    8HFI     C2  576   0.862   2.551   0.820  0.0197 -0.7698  0.2348
    8HFI     F1  577   0.960   2.610   0.898  0.1808 -0.1420 -0.0232
    8HFI     F2  578   0.829   2.638   0.720  0.3475 -0.3524 -0.0165
    8HFI     F3  579   0.915   2.446   0.762  0.2969 -0.6998  0.6046
    8HFI     C3  580   0.774   2.398   1.019 -0.8400 -0.2075 -0.6314
    8HFI     F4  581   0.886   2.424   1.092  0.1182 -0.0965 -0.3230
    8HFI     F5  582   0.793   2.277   0.953 -0.0122 -0.2284 -0.3556
    8HFI     F6  583   0.672   2.397   1.103 -0.3437 -0.2743  0.0733
    8HFI     H1  584   0.581   2.386   0.872  2.4523 -1.4369 -0.9711
    8HFI     H2  585   0.713   2.592   0.961  1.5643  0.3947  0.8397
    9HFI     O1  586   2.380   2.918   1.440  0.3061  0.0308  0.1417
    9HFI     C1  587   2.284   2.850   1.519  0.4222  0.2687  0.0728
    9HFI     C2  588   2.280   2.694   1.490 -0.2589 -0.3247 -0.1765
    9HFI     F1  589   2.167   2.651   1.415  0.2937 -0.1530  0.3926
    9HFI     F2  590   2.272   2.624   1.602 -0.0055  0.1650 -0.2490
    9HFI     F3  591   2.390   2.654   1.433  0.8137  0.0838  0.3084
    9HFI     C3  592   2.147   2.913   1.504  0.7301 -0.3932  0.7380
    9HFI     F4  593   2.090   2.902   1.380  0.1459 -0.3960 -0.4322
    9HFI     F5  594   2.157   3.045   1.536 -0.3373 -0.0472  0.5801
    9HFI     F6  595   2.066   2.852   1.588 -0.1823  0.2241  0.3104
    9HFI     H1  596   2.371   3.012   1.459  1.5812 -0.3797  2.9754
    9HFI     H2  597   2.302   2.875   1.624 -1.5134 -0.4457  0.5905
   10HFI     O1  598   1.821   3.361   1.075  0.3301  0.0449  0.6753
   10HFI     C1  599   1.875   3.277   0.967 -0.0113  0.0752  0.3786
   10HFI     C2  600   2.004   3.204   1.010 -0.9283  0.3462  0.2838
   10HFI     F1  601   2.045   3.125   0.914  0.3151  0.9204  0.1754
   10HFI     F2  602   1.973   3.132   1.120  0.4965  0.3081 -0.2854
   10HFI     F3  603   2.104   3.292   1.035  0.2296 -0.2120  0.0307
   10HFI     C3  604   1.894   3.359   0.834 -0.1720 -0.4899  0.1351
   10HFI     F4  605   1.999   3.438   0.850  0.2261 -0.3509 -0.3359
   10HFI     F5  606   1.786   3.441   0.810  0.0628 -0.0796 -0.0471
   10HFI     F6  607   1.919   3.290   0.725  0.3301  0.0456 -0.2682
   10HFI     H1  608   1.833   3.307   1.155  1.1865 -0.8650 -0.0483
   10HFI     H2  609   1.808   3.193   0.945 -0.6592  0.8307 -0.5734
   11HFI     O1  610   0.457   0.083   2.805 -0.3105  0.0829 -0.4778
   11HFI     C1  611   0.467  -0.051   2.865 -0.4768 -0.5348  0.2461
   11HFI     C2  612   0.526  -0.046   3.012  0.7637  0.1225 -0.8820
   11HFI     F1  613   0.454   0.050   3.087  0.0344 -0.8815  0.2978
   11HFI     F2  614   0.658  -0.012   3.027  0.3150  0.1195 -0.1049
   11HFI     F3  615   0.502  -0.165   3.080  0.0468 -0.1495 -0.3084
   11HFI     C3  616   0.556  -0.152   2.774 -0.2529  0.1948 -0.2080
   11HFI     F4  617   0.688  -0.129   2.781  0.0745 -0.3235  0.0041
   11HFI     F5  618   0.516  -0.148   2.643  0.2473 -0.2065  0.4562
   11HFI     F6  619   0.539  -0.275   2.815  0.2987  0.4676  0.0501
   11HFI     H1  620   0.453   0.081   2.708  1.3343 -0.1433 -0.5482
   11HFI     H2  621   0.366  -0.092   2.876 -1.3002  0.9912 -1.5239
   12HFI     O1  622   1.737   1.548   0.075  0.2712  0.6674 -0.0869
   12HFI     C1  623   1.871   1.592   0.026  0.0362  0.0176 -0.7670
   12HFI     C2  624   1.856   1.742  -0.012 -0.2242  0.3617 -0.2636
   12HFI     F1  625   1.978   1.793  -0.043 -0.6797  0.3122 -0.1486
   12HFI     F2  626   1.803   1.816   0.086 -0.0341  0.1122  0.2217
   12HFI     F3  627   1.774   1.770  -0.118 -0.1125  0.3872  0.3845
   12HFI     C3  628   1.917   1.503  -0.101 -0.0093  0.1517  0.2193
   12HFI     F4  629   1.854   1.537  -0.210 -0.3778 -0.1890  0.2007
   12HFI     F5  630   1.887   1.373  -0.084  0.4023 -0.4638 -0.2762
   12HFI     F6  631   2.055   1.511  -0.129  0.4711 -0.5186 -0.5785
   12HFI     H1  632   1.676   1.559  -0.000  0.2204 -0.3077 -0.1940
   12HFI     H2  633   1.944   1.585   0.107 -0.0961  0.5628 -0.6038
   13HFI     O1  634   2.698   0.571   1.312 -0.1970 -0.0069  0.0546
   13HFI     C1  635   2.609   0.628   1.415  0.1326  0.2344  0.1096
   13HFI     C2  636   2.684   0.721   1.506 -1.0926  0.7721 -0.2941
   13HFI     F1  637   2.610   0.785   1.600 -0.3629 -0.1036  0.2005
   13HFI     F2  638   2.735   0.824   1.432 -0.4796 -0.5999  0.4323
   13HFI     F3  639   2.790   0.657   1.562  0.0461  0.4327  0.3121
   13HFI     C3  640   2.529   0.525   1.491  0.1553  0.5100  0.0639
   13HFI     F4  641   2.614   0.458   1.574  0.1350 -0.2509  0.1583
   13HFI     F5  642   2.471   0.435   1.410  0.3690  0.1330  0.6602
   13HFI     F6  643   2.434   0.575   1.577 -0.1357 -0.5003 -0.3034
   13HFI     H1  644   2.745   0.493   1.347  0.8808 -0.7595 -2.9043
   13HFI     H2  645   2.531   0.682   1.359 -2.2797 -0.4825  2.6504
   14HFI     O1  646   3.247   3.219   0.611 -0.0191  0.2574  0.2773
   14HFI     C1  647   3.311   3.301   0.512  1.3740 -0.4324 -0.7558
   14HFI     C2  648   3.458   3.351   0.548 -0.0452  0.3396  0.7269
   14HFI     F1  649   3.535   3.246   0.601  0.2492  0.0310  0.0906
   14HFI     F2  650   3.453   3.453   0.644  0.0179 -0.1984  0.4682
   14HFI     F3  651   3.518   3.406   0.435 -0.1492 -0.2383 -0.0708
   14HFI     C3  652   3.224   3.422   0.480  0.3299  0.0265 -0.3814
   14HFI     F4  653   3.281   3.506   0.391 -0.0911 -0.3762 -0.3749
   14HFI     F5  654   3.182   3.498   0.578 -0.0450  0.0747  0.0919
   14HFI     F6  655   3.109   3.374   0.423 -0.0197  0.1428  0.1574
   14HFI     H1  656   3.269   3.247   0.701 -0.4095 -1.6712  1.0011
   14HFI     H2  657   3.311   3.246   0.417  1.0700 -0.7051 -0.5986
   15HFI     O1  658   2.764   1.663   1.568  0.0847  0.5398  0.2515
   15HFI     C1  659   2.845   1.712   1.457 -0.1685 -0.6401  0.5216
   15HFI     C2  660   2.992   1.726   1.515  0.3398 -0.6331  0.0101
   15HFI     F1  661   3.035   1.607   1.564  0.4367  0.3392 -0.8738
   15HFI     F2  662   3.007   1.822   1.616  0.2395  0.4015 -0.1207
   15HFI     F3  663   3.079   1.757   1.418  0.0318  0.1433 -0.4214
   15HFI     C3  664   2.795   1.851   1.407 -0.3969  0.3274  0.1625
   15HFI     F4  665   2.858   1.891   1.287  0.1039 -0.1635  0.9157
   15HFI     F5  666   2.813   1.952   1.498 -0.4386 -0.1871 -0.0875
   15HFI     F6  667   2.666   1.844   1.371  0.2921  0.0068 -0.4283
   15HFI     H1  668   2.820   1.657   1.648  0.5490 -2.0901 -0.2213
   15HFI     H2  669   2.862   1.637   1.379 -2.0710 -1.7878  1.1743
   16HFI     O1  670   3.033   2.687   2.960 -0.1176 -0.6604 -0.2765
   16HFI     C1  671   2.893   2.713   2.943  0.4887  0.7922 -0.8865
   16HFI     C2  672   2.813   2.586   2.973 -0.5430 -0.1535 -0.1483
   16HFI     F1  673   2.831   2.541   3.103  0.0224  0.1536  0.4026
   16HFI     F2  674   2.840   2.483   2.897 -0.8601  0.4965  0.2506
   16HFI     F3  675   2.685   2.612   2.964  0.1530  0.4659 -0.1880
   16HFI     C3  676   2.866   2.778   2.797  0.1284 -0.3217  0.8633
   16HFI     F4  677   2.941   2.892   2.788  0.6953 -0.6599 -0.6221
   16HFI     F5  678   2.737   2.821   2.773 -0.2183  0.1570  0.7542
   16HFI     F6  679   2.901   2.701   2.692  0.0987  0.2098  0.3804
   16HFI     H1  680   3.068   2.627   2.892  1.6571  0.4864 -0.4286
   16HFI     H2  681   2.855   2.787   3.015 -1.9021  1.0867 -2.3714
   17HFI     O1  682   3.365   3.092   1.306  0.0922 -0.8915  0.3875
   17HFI     C1  683   3.252   3.029   1.371  0.4936  0.3608  0.0585
   17HFI     C2  684   3.274   3.011   1.522 -0.1832 -0.6365 -0.5307
   17HFI     F1  685   3.164   2.965   1.579 -0.1084  0.2896  0.2192
   17HFI     F2  686   3.313   3.126   1.582 -0.0887 -0.8118  0.4456
   17HFI     F3  687   3.376   2.926   1.542 -0.0971  0.4227  0.5959
   17HFI     C3  688   3.208   2.898   1.302 -0.2591  0.3138 -0.1237
   17HFI     F4  689   3.175   2.916   1.172  0.1307 -0.2016 -0.4738
   17HFI     F5  690   3.100   2.849   1.367  0.5635 -0.5912 -0.2320
   17HFI     F6  691   3.300   2.802   1.310 -0.0767 -0.4291  0.0636
   17HFI     H1  692   3.442   3.087   1.365 -1.0573 -2.4323  1.7962
   17HFI     H2  693   3.169   3.099   1.356  1.5124  1.4306 -0.7168
   18HFI     O1  694   2.654   1.306   0.611  0.2831  0.1684 -0.5357
   18HFI     C1  695   2.644   1.349   0.478  0.0868  0.7582  0.2375
   18HFI     C2  696   2.762   1.435   0.437 -0.4439 -0.6455 -0.1131
   18HFI     F1  697   2.756   1.479   0.307 -0.1803 -0.1851  0.1928
   18HFI     F2  698   2.871   1.361   0.442  0.4941  0.7765 -0.7551
   18HFI     F3  699   2.779   1.550   0.512  0.6202  0.0054 -0.5652
   18HFI     C3  700   2.509   1.419   0.456 -0.1806  0.4392  0.2064
   18HFI     F4  701   2.485   1.462   0.332 -0.1944  0.0597  0.1379
   18HFI     F5  702   2.493   1.531   0.533 -0.0731  0.2589  0.4364
   18HFI     F6  703   2.413   1.323   0.487  0.1366  0.1792 -0.4186
   18HFI     H1  704   2.737   1.254   0.613 -0.2260 -0.6667 -0.9453
   18HFI     H2  705   2.658   1.259   0.417 -0.0927 -0.9731  2.6813
   19HFI     O1  706   1.979   1.061   0.105  0.2672  0.4979 -0.4555
   19HFI     C1  707   2.119   1.095   0.134  0.1197 -0.0638 -1.0005
   19HFI     C2  708   2.159   1.234   0.076  0.3196 -0.7416 -0.2119
   19HFI     F1  709   2.143   1.235  -0.055  0.3444 -0.0888  0.2707
   19HFI     F2  710   2.284   1.262   0.112  0.5079  0.2762 -1.1854
   19HFI     F3  711   2.083   1.331   0.133  0.1033  0.0021 -0.0436
   19HFI     C3  712   2.229   0.984   0.105  0.2721  0.0916  0.5173
   19HFI     F4  713   2.183   0.854   0.118  0.3628  0.0761  0.5143
   19HFI     F5  714   2.330   1.008   0.187 -0.1443 -0.0757 -0.2216
   19HFI     F6  715   2.285   0.992  -0.022 -0.0168  0.3290 -0.0946
   19HFI     H1  716   1.934   1.126   0.049 -0.3707 -0.3209 -0.9146
   19HFI     H2  717   2.121   1.110   0.242  0.3539 -0.6285 -0.9234
   20HFI     O1  718   0.469   0.973   1.369  0.0915 -0.2013 -0.0454
   20HFI     C1  719   0.542   1.098   1.408 -0.4133 -0.3891  0.4080
   20HFI     C2  720   0.558   1.196   1.290 -0.2738 -0.1837  0.1679
   20HFI     F1  721   0.445   1.265   1.256 -0.1806 -0.1847 -0.2258
   20HFI     F2  722   0.603   1.134   1.173  0.0809  0.1297  0.1069
   20HFI     F3  723   0.652   1.287   1.312 -0.5223  0.2962  0.2022
   20HFI     C3  724   0.670   1.077   1.500  0.1231  0.4815 -0.0095
   20HFI     F4  725   0.663   0.962   1.578  0.3471  0.2551 -0.1570
   20HFI     F5  726   0.691   1.176   1.586  0.3092 -0.0926  0.3015
   20HFI     F6  727   0.784   1.077   1.423  1.1074  0.0889 -0.0871
   20HFI     H1  728   0.519   0.899   1.407 -0.2689  0.9680  2.8127
   20HFI     H2  729   0.467   1.146   1.472 -0.9886  0.1036 -0.6333
   21HFI     O1  730   0.261   1.059   0.882 -1.0597 -0.1354 -0.2560
   21HFI     C1  731   0.209   0.941   0.956  0.6244  0.4389  0.4018
   21HFI     C2  732   0.298   0.914   1.087  1.1838  0.0721  0.3395
   21HFI     F1  733   0.233   0.851   1.180  0.8476  0.1506  0.3237
   21HFI     F2  734   0.320   1.035   1.144 -0.8338 -0.3973 -0.2720
   21HFI     F3  735   0.416   0.857   1.064  0.3110  0.0789  0.1719
   21HFI     C3  736   0.186   0.814   0.881  0.1184 -0.0630 -0.4609
   21HFI     F4  737   0.095   0.840   0.778  0.1882 -0.8505 -0.0923
   21HFI     F5  738   0.138   0.715   0.961  0.1392  0.4351  0.2945
   21HFI     F6  739   0.292   0.775   0.823  0.4188  0.1262  0.2021
   21HFI     H1  740   0.329   1.024   0.820 -1.7956  0.1248 -1.2243
   21HFI     H2  741   0.115   0.966   1.007  0.3049  0.6543 -0.2728
   22HFI     O1  742   0.836   1.053   0.959 -0.5722 -0.6241  0.0955
   22HFI     C1  743   0.713   1.079   0.877  0.7025  0.7941 -0.4104
   22HFI     C2  744   0.666   0.953   0.806 -0.4348 -0.5331  0.0027
   22HFI     F1  745   0.761   0.902   0.726 -0.7291 -0.3994  0.3146
   22HFI     F2  746   0.552   0.976   0.733 -0.0164 -0.0517 -0.5485
   22HFI     F3  747   0.640   0.856   0.892 -0.0275 -0.6425  0.1899
   22HFI     C3  748   0.729   1.198   0.775 -0.3357 -0.6541 -0.1260
   22HFI     F4  749   0.620   1.216   0.695 -0.0362  0.5277  0.1857
   22HFI     F5  750   0.839   1.179   0.697  0.0453 -0.0557  0.1294
   22HFI     F6  751   0.748   1.308   0.844  0.6390 -0.6004 -1.3185
   22HFI     H1  752   0.877   1.140   0.975 -0.4171 -0.7553  0.4190
   22HFI     H2  753   0.622   1.106   0.931 -1.4262  2.5177 -4.6151
   23HFI     O1  754   2.177   1.960   3.771  0.3432  0.7499  0.0102
   23HFI     C1  755   2.219   2.086   3.816 -0.0737  0.1424  0.1046
   23HFI     C2  756   2.161   2.200   3.732  0.8740  0.0275  0.5570
   23HFI     F1  757   2.161   2.317   3.803  0.1221 -0.1211  0.5046
   23HFI     F2  758   2.032   2.186   3.679 -0.7709 -0.0849  0.2771
   23HFI     F3  759   2.231   2.218   3.619 -0.4867  0.1302  0.5600
   23HFI     C3  760   2.379   2.095   3.822  1.0027  0.5404  0.6194
   23HFI     F4  761   2.418   2.011   3.920 -0.1595  0.0089  0.1047
   23HFI     F5  762   2.435   2.208   3.856 -0.1258  0.5249 -0.0176
   23HFI     F6  763   2.438   2.045   3.714 -0.6145  0.0027  0.8316
   23HFI     H1  764   2.219   1.942   3.685 -0.8795  0.2684 -0.5021
   23HFI     H2  765   2.191   2.111   3.919 -0.0194 -1.0577  0.4249
   24HFI     O1  766   0.952   0.125   1.558  0.2274  0.0028 -0.2395
   24HFI     C1  767   0.863   0.052   1.465 -0.6520 -0.1708 -1.0494
   24HFI     C2  768   0.938  -0.040   1.369  0.5294 -0.1108 -0.2066
   24HFI     F1  769   0.860  -0.083   1.268 -0.2471  0.1282  0.1764
   24HFI     F2  770   0.987  -0.148   1.437 -0.2602 -0.3761 -0.3676
   24HFI     F3  771   1.039   0.023   1.308 -0.3429  0.1685  0.1309
   24HFI     C3  772   0.764   0.144   1.395 -0.4010 -0.1120 -0.1548
   24HFI     F4  773   0.667   0.069   1.349  0.6628 -0.4638 -0.5115
   24HFI     F5  774   0.816   0.208   1.291 -0.2911 -0.1645  0.2171
   24HFI     F6  775   0.714   0.231   1.488 -0.2710  0.0331 -0.4811
   24HFI     H1  776   0.964   0.217   1.528  0.0628 -0.3669 -1.4552
   24HFI     H2  777   0.812  -0.023   1.527 -0.3659  1.0595  0.7016
   25HFI     O1  778   2.135   0.048   2.629 -0.1398 -0.6115 -0.4180
   25HFI     C1  779   2.127  -0.053   2.736 -0.1867  0.4435  0.1716
   25HFI     C2  780   2.069   0.013   2.866  0.0159  0.6979  0.2677
   25HFI     F1  781   2.058  -0.079   2.964 -0.4784  0.6224 -0.2696
   25HFI     F2  782   1.948   0.057   2.844  0.3830 -0.1371 -0.2050
   25HFI     F3  783   2.150   0.114   2.912  0.3675 -0.3078  0.0112
   25HFI     C3  784   2.254  -0.137   2.755 -0.2137  0.7363  0.3539
   25HFI     F4  785   2.303  -0.183   2.635 -0.4370  0.1253  0.3310
   25HFI     F5  786   2.233  -0.242   2.833 -0.2691  0.2431 -0.3768
   25HFI     F6  787   2.349  -0.058   2.811 -0.1534 -0.0773  0.0891
   25HFI     H1  788   2.228   0.069   2.610 -0.2403  1.3367  1.0404
   25HFI     H2  789   2.049  -0.121   2.699  0.2607  0.2786 -0.4746
   26HFI     O1  790   0.776   1.292   2.979 -0.1716  0.3132 -0.3489
   26HFI     C1  791   0.673   1.210   2.907  0.4404  0.7492  0.0303
   26HFI     C2  792   0.723   1.064   2.871  0.3323  0.4352 -0.3496
   26HFI     F1  793   0.764   0.999   2.985  0.4156  0.0375  0.1319
   26HFI     F2  794   0.831   1.061   2.796 -0.2234  0.4934  0.4241
   26HFI     F3  795   0.635   0.985   2.813  0.0841 -0.6197  0.3588
   26HFI     C3  796   0.622   1.291   2.786 -0.5595 -0.7670  0.2533
   26HFI     F4  797   0.552   1.397   2.814  0.0935  0.2295  0.4178
   26HFI     F5  798   0.553   1.210   2.708 -0.1070  0.1182 -0.4438
   26HFI     F6  799   0.723   1.333   2.708 -0.2146 -0.1804 -0.5062
   26HFI     H1  800   0.797   1.246   3.062  0.5809 -0.5068 -0.9919
   26HFI     H2  801   0.588   1.188   2.973 -0.0537 -0.6612 -1.0596
   27HFI     O1  802   2.140   1.840   0.557  0.3427  0.2082 -0.3192
   27HFI     C1  803   2.177   1.750   0.449 -0.2643 -0.0783 -0.5467
   27HFI     C2  804   2.116   1.792   0.314  0.1454  1.2569  0.5895
   27HFI     F1  805   1.989   1.786   0.297 -0.0662 -0.2917  0.1992
   27HFI     F2  806   2.174   1.721   0.217 -0.3480 -0.3518 -0.3419
   27HFI     F3  807   2.147   1.918   0.292 -0.5912  0.1861  0.3181
   27HFI     C3  808   2.153   1.601   0.484  0.5205 -0.2276 -0.2453
   27HFI     F4  809   2.028   1.560   0.513  0.2029 -0.1688  0.2526
   27HFI     F5  810   2.233   1.574   0.593 -0.1218  0.0905  0.1966
   27HFI     F6  811   2.196   1.518   0.386 -0.2738  0.4985  0.4653
   27HFI     H1  812   2.046   1.864   0.550  0.2570 -0.3752 -1.0885
   27HFI     H2  813   2.286   1.762   0.444 -0.1384  1.5326  3.4277
   28HFI     O1  814   1.667   1.085   3.231 -0.8095  0.0739  0.1337
   28HFI     C1  815   1.534   1.127   3.263 -0.8132  1.2560 -0.5717
   28HFI     C2  816   1.529   1.209   3.394 -0.1723 -0.4111 -0.4985
   28HFI     F1  817   1.418   1.285   3.400 -0.2219 -0.1584  0.1048
   28HFI     F2  818   1.625   1.296   3.393 -0.0195 -0.1149  0.1909
   28HFI     F3  819   1.541   1.139   3.507 -0.0233 -0.4810 -0.1731
   28HFI     C3  820   1.429   1.010   3.283 -0.2623  0.2486  0.3061
   28HFI     F4  821   1.304   1.051   3.325  0.2719 -0.6433  0.0334
   28HFI     F5  822   1.462   0.913   3.372  0.1824 -0.8431 -0.2397
   28HFI     F6  823   1.419   0.951   3.162  0.2076 -0.1954 -0.4468
   28HFI     H1  824   1.706   1.054   3.315 -0.3411  1.1195  0.3050
   28HFI     H2  825   1.497   1.188   3.180  1.0431  1.4316 -1.2774
   29HFI     O1  826   1.010   0.970   1.275  0.1420 -0.0864 -0.0087
   29HFI     C1  827   1.087   1.070   1.355  0.1291  0.0250 -0.1156
   29HFI     C2  828   1.204   1.137   1.273 -0.5769  0.0642 -0.2368
   29HFI     F1  829   1.262   1.230   1.349 -0.1777 -0.2056  0.2439
   29HFI     F2  830   1.149   1.203   1.163 -0.4874 -0.3525  0.1233
   29HFI     F3  831   1.296   1.052   1.214  0.5834 -0.2659 -0.1382
   29HFI     C3  832   1.153   1.013   1.490 -0.1899  0.5303 -0.2922
   29HFI     F4  833   1.055   0.966   1.567 -0.2328  0.2446  0.0490
   29HFI     F5  834   1.213   1.112   1.565  0.0710 -0.0575  0.0087
   29HFI     F6  835   1.240   0.916   1.467 -0.2447 -0.2042 -0.1810
   29HFI     H1  836   1.066   0.890   1.267 -0.3045 -0.4816  0.7780
   29HFI     H2  837   1.017   1.148   1.387 -1.2494 -0.6846 -1.3191
   30HFI     O1  838   1.589   3.172   2.787  0.2334 -0.5010 -0.3343
   30HFI     C1  839   1.686   3.066   2.810 -0.2623  0.4275 -0.2691
   30HFI     C2  840   1.694   3.024   2.960  0.7775 -0.4617  0.9979
   30HFI     F1  841   1.783   2.916   2.964 -0.5337 -0.0822  0.5779
   30HFI     F2  842   1.574   2.991   3.007  0.4283 -0.5453 -0.5011
   30HFI     F3  843   1.741   3.126   3.035 -0.0686  0.3811 -0.0086
   30HFI     C3  844   1.824   3.101   2.753  0.5441  0.1405 -0.3000
   30HFI     F4  845   1.860   3.219   2.805  0.3971 -0.2375  0.1506
   30HFI     F5  846   1.813   3.115   2.615  0.1904 -0.6609  0.0015
   30HFI     F6  847   1.918   3.012   2.769 -0.6870 -0.7535 -0.2734
   30HFI     H1  848   1.509   3.120   2.766 -0.4360  0.6784 -0.7592
   30HFI     H2  849   1.653   2.971   2.766  1.0622  0.1727 -0.7459
   31HFI     O1  850   1.206   2.180   1.296 -0.1701  0.3353  0.2746
   31HFI     C1  851   1.295   2.218   1.411  1.4483 -0.0554 -0.1669
   31HFI     C2  852   1.337   2.089   1.496  0.7163 -0.7015 -0.2809
   31HFI     F1  853   1.423   2.126   1.586  0.0770  0.5660  0.4939
   31HFI     F2  854   1.402   1.993   1.416  0.3219 -0.2096  0.1869
   31HFI     F3  855   1.239   2.031   1.560  0.0164  0.9360 -0.1362
   31HFI     C3  856   1.228   2.325   1.499  0.1492 -0.0705  0.1923
   31HFI     F4  857   1.122   2.279   1.568 -0.4834 -0.0104  0.3368
   31HFI     F5  858   1.194   2.432   1.430  0.2515 -0.2731  0.1938
   31HFI     F6  859   1.316   2.374   1.590  0.0174 -0.4547 -0.5459
   31HFI     H1  860   1.109   2.184   1.306 -0.3410 -0.3395 -0.9763
   31HFI     H2  861   1.391   2.258   1.378  1.9734 -0.0387  1.3374
   32HFI     O1  862   3.080   2.867   3.639  0.0586  0.5496  0.6038
   32HFI     C1  863   3.139   2.771   3.731 -0.1078 -0.0059  0.2569
   32HFI     C2  864   3.287   2.806   3.768  0.3958 -0.4328 -0.5865
   32HFI     F1  865   3.299   2.935   3.795 -0.1426  0.0095  0.0616
   32HFI     F2  866   3.375   2.776   3.665  0.2693 -0.8600 -0.2608
   32HFI     F3  867   3.320   2.736   3.885 -0.4774 -0.0210 -0.1328
   32HFI     C3  868   3.138   2.627   3.670  0.2150 -0.5766 -0.5224
   32HFI     F4  869   3.182   2.635   3.542 -0.0557 -0.3855  0.0971
   32HFI     F5  870   3.015   2.577   3.664  0.1076 -0.2134 -0.1305
   32HFI     F6  871   3.213   2.542   3.742  0.4418  0.0215 -0.2579
   32HFI     H1  872   3.101   2.839   3.549 -1.0180  2.3806 -0.2373
   32HFI     H2  873   3.083   2.776   3.825 -1.4108 -1.4352 -0.4222
   33HFI     O1  874   0.044   2.673   0.836  0.5854  0.1928 -0.3337
   33HFI     C1  875   0.095   2.589   0.947  0.3314 -0.6792  0.2029
   33HFI     C2  876   0.234   2.539   0.933  0.3694 -0.0572  0.2209
   33HFI     F1  877   0.258   2.465   0.829 -0.2937  0.3078 -0.3320
   33HFI     F2  878   0.267   2.466   1.048  0.1227  0.0546  0.1900
   33HFI     F3  879   0.326   2.632   0.932 -0.2996 -0.2793  0.2955
   33HFI     C3  880  -0.007   2.478   0.977  0.3691  0.2563  0.0787
   33HFI     F4  881  -0.015   2.386   0.879 -0.0368  0.4625  0.3629
   33HFI     F5  882  -0.139   2.522   0.978 -0.5997  0.0443  0.0425
   33HFI     F6  883   0.002   2.411   1.095  0.1148  0.0772 -0.4695
   33HFI     H1  884   0.117   2.698   0.777  0.2604  0.0251 -0.8167
   33HFI     H2  885   0.095   2.649   1.039  0.9023  0.1437 -0.3185
   34HFI     O1  886   0.672   1.307   3.796  0.1832  0.2648  0.5093
   34HFI     C1  887   0.693   1.322   3.941  0.1334  0.2720 -0.3582
   34HFI     C2  888   0.835   1.380   3.971  0.6570  0.3763 -0.2498
   34HFI     F1  889   0.846   1.515   3.946 -0.0951  0.6151  0.2871
   34HFI     F2  890   0.923   1.322   3.893 -0.9177 -0.1217  0.5099
   34HFI     F3  891   0.875   1.366   4.097  0.1624  0.2558 -0.2772
   34HFI     C3  892   0.679   1.183   4.011 -0.3461 -0.3263 -0.0884
   34HFI     F4  893   0.581   1.112   3.955 -0.3132 -0.1909  0.7367
   34HFI     F5  894   0.649   1.195   4.144  0.1027  0.6318  0.0668
   34HFI     F6  895   0.787   1.102   3.993  0.3797 -0.0612  0.1510
   34HFI     H1  896   0.756   1.307   3.746 -0.6013  1.6490 -0.8425
   34HFI     H2  897   0.613   1.380   3.988 -0.6291 -1.0206 -0.0167
   35HFI     O1  898   2.853   3.392   1.425 -1.0250  0.1540  0.1692
   35HFI     C1  899   2.945   3.478   1.506  0.2755  0.4829  0.1811
   35HFI     C2  900   2.971   3.624   1.449  0.1490  0.3533 -0.0810
   35HFI     F1  901   3.038   3.622   1.332 -0.2802 -0.0190  0.2911
   35HFI     F2  902   3.033   3.704   1.539  0.3125  0.1311 -0.1003
   35HFI     F3  903   2.854   3.683   1.417  0.3848 -0.6673  0.3580
   35HFI     C3  904   3.081   3.401   1.529 -0.0401 -0.1104  0.7576
   35HFI     F4  905   3.055   3.288   1.602  0.1394 -0.2643 -0.2929
   35HFI     F5  906   3.164   3.482   1.599  0.4288 -1.1155  0.3585
   35HFI     F6  907   3.145   3.363   1.417  0.0087  0.1044  0.7110
   35HFI     H1  908   2.904   3.338   1.363  0.6550  2.2154 -0.3060
   35HFI     H2  909   2.903   3.478   1.608 -1.2196 -0.4966 -0.4106
   36HFI     O1  910   2.860   1.416   1.346  0.0186  0.2347  0.0245
   36HFI     C1  911   2.760   1.322   1.389  0.1272 -1.1959  0.1966
   36HFI     C2  912   2.814   1.257   1.510 -0.1532  0.1053  0.3033
   36HFI     F1  913   2.920   1.178   1.475  0.3871 -0.0854  0.2433
   36HFI     F2  914   2.731   1.177   1.572  0.2932  0.1206  0.3710
   36HFI     F3  915   2.858   1.356   1.600  0.5202  0.4459 -0.0647
   36HFI     C3  916   2.718   1.224   1.281  0.3005 -0.2865  0.4566
   36HFI     F4  917   2.823   1.150   1.244 -0.1137  0.1572  0.1306
   36HFI     F5  918   2.680   1.290   1.167 -0.7552  0.7405 -0.4489
   36HFI     F6  919   2.614   1.141   1.314 -0.4653  0.1881  0.8279
   36HFI     H1  920   2.952   1.385   1.354 -0.3741 -0.6130  1.3886
   36HFI     H2  921   2.675   1.381   1.425 -0.0905 -0.2676 -1.8039
   37HFI     O1  922   1.762   3.253   1.341  0.3364  0.2559 -0.8283
   37HFI     C1  923   1.781   3.108   1.367  0.2524  0.0749  0.4151
   37HFI     C2  924   1.661   3.030   1.285 -0.7162 -0.0649  0.0509
   37HFI     F1  925   1.548   3.090   1.316 -0.1257  0.3591 -0.3090
   37HFI     F2  926   1.644   2.897   1.302 -0.1676  1.0250  0.3134
   37HFI     F3  927   1.668   3.054   1.157 -0.0349  0.0792 -0.5945
   37HFI     C3  928   1.769   3.069   1.521 -0.2932 -0.4088 -0.7432
   37HFI     F4  929   1.870   3.131   1.582  0.3059  0.1142  0.1604
   37HFI     F5  930   1.766   2.936   1.543 -0.1995 -0.2299 -0.1173
   37HFI     F6  931   1.659   3.123   1.574 -0.2129  0.1309 -0.2689
   37HFI     H1  932   1.705   3.288   1.411  0.3352 -0.6666 -0.3608
   37HFI     H2  933   1.875   3.079   1.318 -1.3692  0.1223 -2.8928
   38HFI     O1  934   0.871   2.741   1.350  0.2260 -0.4688 -0.7108
   38HFI     C1  935   0.806   2.691   1.473 -0.3330  0.0242 -0.6537
   38HFI     C2  936   0.868   2.552   1.525  0.8445 -0.5258  0.2120
   38HFI     F1  937   0.987   2.571   1.583  0.0029 -0.4054  0.1980
   38HFI     F2  938   0.893   2.468   1.424  0.7490 -0.3315 -0.0072
   38HFI     F3  939   0.788   2.481   1.603  0.4354  0.5225 -0.2275
   38HFI     C3  940   0.653   2.672   1.460 -0.0625 -0.0096 -0.2115
   38HFI     F4  941   0.600   2.681   1.586 -0.2251  0.0863  0.2208
   38HFI     F5  942   0.618   2.552   1.402 -0.1712 -0.1374 -0.5736
   38HFI     F6  943   0.593   2.768   1.381  0.8674 -0.5384  0.1251
   38HFI     H1  944   0.967   2.726   1.362  0.1287 -0.6786 -0.1589
   38HFI     H2  945   0.823   2.757   1.559 -0.4541  0.2119 -0.7733
   39HFI     O1  946   2.853   0.833   0.882  0.1985 -0.0024  0.3825
   39HFI     C1  947   2.899   0.942   0.964  0.3897  0.2970  0.5134
   39HFI     C2  948   2.961   1.056   0.873 -0.3576  0.5403 -0.4286
   39HFI     F1  949   2.965   1.176   0.929  0.3483  0.0946 -0.0142
   39HFI     F2  950   2.907   1.069   0.751 -0.0093 -0.2302 -0.3900
   39HFI     F3  951   3.093   1.022   0.844  0.1983  0.1026  0.1796
   39HFI     C3  952   2.994   0.888   1.077 -0.1580  0.6083  0.0427
   39HFI     F4  953   2.923   0.807   1.159  0.1718 -0.3780  0.2767
   39HFI     F5  954   3.050   0.989   1.148 -0.0567 -0.1278 -0.2026
   39HFI     F6  955   3.095   0.819   1.029  0.0368  0.2636 -0.4218
   39HFI     H1  956   2.795   0.773   0.932  2.5113 -2.8833 -0.2624
   39HFI     H2  957   2.809   0.987   1.006 -1.3009 -1.9281 -0.5997
   40HFI     O1  958   1.293   2.887   3.530  0.4085  0.1849 -0.1520
   40HFI     C1  959   1.249   2.837   3.397  0.6693  0.1723 -1.1368
   40HFI     C2  960   1.216   2.953   3.304 -0.5838  0.4537 -0.1778
   40HFI     F1  961   1.160   2.918   3.193 -0.4300 -0.2924  0.1046
   40HFI     F2  962   1.325   3.016   3.277  0.2341 -0.1013 -0.5651
   40HFI     F3  963   1.140   3.044   3.366 -0.2141  0.1967  0.1815
   40HFI     C3  964   1.135   2.732   3.415 -0.2474 -0.2557 -0.4137
   40HFI     F4  965   1.009   2.779   3.438 -0.3372 -0.0209  0.2000
   40HFI     F5  966   1.169   2.640   3.514 -0.7809  0.0826  0.4325
   40HFI     F6  967   1.138   2.655   3.304 -0.1178 -0.7509  0.1962
   40HFI     H1  968   1.266   2.980   3.543  1.2177  0.7156 -2.0820
   40HFI     H2  969   1.327   2.779   3.345  2.2920  1.2284  0.1055
   41HFI     O1  970   1.848   2.148   1.113 -0.1521 -0.2535  0.3814
   41HFI     C1  971   1.860   2.018   1.038  0.0491 -0.1655  0.0956
   41HFI     C2  972   2.003   1.955   1.053 -0.2780 -0.0507 -0.1310
   41HFI     F1  973   2.004   1.837   0.989 -0.1345 -0.3141 -0.0676
   41HFI     F2  974   2.038   1.925   1.177  0.0141  0.4852 -0.1941
   41HFI     F3  975   2.091   2.040   0.995 -0.0797 -0.5063 -0.9315
   41HFI     C3  976   1.818   2.037   0.890  0.1583 -1.3160  0.0814
   41HFI     F4  977   1.884   2.141   0.836  0.2986 -0.3412 -0.1106
   41HFI     F5  978   1.690   2.064   0.883 -0.7497  0.1572 -0.5268
   41HFI     F6  979   1.845   1.931   0.820 -0.4205  0.3104  0.3657
   41HFI     H1  980   1.861   2.212   1.041  0.0652  0.9080  1.4209
   41HFI     H2  981   1.801   1.937   1.083 -1.1595  0.8373  0.3602
   42HFI     O1  982   3.282   0.271   0.739  0.7183  0.3381 -0.2014
   42HFI     C1  983   3.343   0.331   0.855  0.0286 -0.1657 -0.0246
   42HFI     C2  984   3.475   0.401   0.812  0.4489 -0.1120  0.3154
   42HFI     F1  985   3.550   0.321   0.735 -0.5477 -0.0492 -0.0415
   42HFI     F2  986   3.555   0.442   0.910 -0.0250 -0.1936  0.2989
   42HFI     F3  987   3.443   0.507   0.740 -0.5577  0.2167  0.2665
   42HFI     C3  988   3.367   0.223   0.968 -0.7942  0.3992  0.1983
   42HFI     F4  989   3.477   0.151   0.940 -0.3570  0.7604 -0.1761
   42HFI     F5  990   3.264   0.132   0.977 -0.4008 -0.1127  0.2815
   42HFI     F6  991   3.387   0.275   1.092 -0.0755  0.1376  0.1288
   42HFI     H1  992   3.333   0.297   0.660  1.5231 -3.1148 -0.8762
   42HFI     H2  993   3.273   0.404   0.897  0.2867  0.0814 -0.0240
   43HFI     O1  994   1.419   0.889   0.821  0.6467  0.3057  0.2039
   43HFI     C1  995   1.554   0.923   0.829 -0.4580 -0.2347  0.7833
   43HFI     C2  996   1.575   1.015   0.955  0.3445  0.4172  0.1619
   43HFI     F1  997   1.534   1.142   0.936  0.6625 -0.1562 -0.1082
   43HFI     F2  998   1.708   1.019   0.992 -0.0019  0.2560 -0.3742
   43HFI     F3  999   1.510   0.976   1.062 -0.0261 -0.0215 -0.2193
   43HFI     C3 1000   1.603   0.988   0.702  0.2523  0.3924  0.4220
   43HFI     F4 1001   1.597   0.904   0.594  0.0167  0.4153 -0.3448
   43HFI     F5 1002   1.734   1.027   0.709 -0.2070  0.5708 -0.2125
   43HFI     F6 1003   1.532   1.098   0.664  0.1462  0.1505 -0.1572
   43HFI     H1 1004   1.368   0.967   0.793  1.1821  0.8491  0.7270
   43HFI     H2 1005   1.615   0.833   0.839  0.3424  0.3441  1.1702
   44HFI     O1 1006   1.986   1.560   1.077 -0.3317  0.2388  1.1043
   44HFI     C1 1007   2.047   1.448   1.008  0.5068 -0.2632 -0.1336
   44HFI     C2 1008   2.048   1.467   0.856  1.1827 -0.0704  0.6750
   44HFI     F1 1009   1.916   1.474   0.812 -0.0356 -0.3449 -0.0980
   44HFI     F2 1010   2.125   1.373   0.788  0.1756  0.3586 -0.1352
   44HFI     F3 1011   2.108   1.586   0.825  0.5616 -0.0581 -0.2636
   44HFI     C3 1012   2.002   1.315   1.056 -0.4429  0.8618 -0.4608
   44HFI     F4 1013   2.086   1.217   1.014  0.1393 -0.3662  0.1461
   44HFI     F5 1014   1.883   1.287   1.004 -0.5393  0.2499  0.0854
   44HFI     F6 1015   1.989   1.306   1.193 -0.2839  0.2768  0.2916
   44HFI     H1 1016   1.997   1.641   1.024 -0.1862 -1.2944 -1.2920
   44HFI     H2 1017   2.153   1.453   1.036  0.9543 -1.2115 -1.6420
   45HFI     O1 1018   3.189   2.257   1.590 -0.5121  0.0151  0.1883
   45HFI     C1 1019   3.135   2.343   1.489 -0.4729 -0.1182 -0.1713
   45HFI     C2 1020   3.210   2.478   1.484  0.5613 -0.3705  0.8488
   45HFI     F1 1021   3.172   2.549   1.383 -0.2165 -0.1553  0.1794
   45HFI     F2 1022   3.351   2.463   1.477 -0.1312 -0.0395  0.2778
   45HFI     F3 1023   3.179   2.553   1.598 -0.4423 -0.4770  0.2382
   45HFI     C3 1024   2.981   2.355   1.503  0.4779 -0.2907  0.5718
   45HFI     F4 1025   2.950   2.428   1.609 -0.1682  0.1819 -0.1268
   45HFI     F5 1026   2.918   2.230   1.520 -0.4537 -0.4134 -0.1253
   45HFI     F6 1027   2.921   2.417   1.401 -0.0946  0.1828 -0.1659
   45HFI     H1 1028   3.163   2.282   1.680  0.3818  1.5776  0.0322
   45HFI     H2 1029   3.161   2.297   1.393 -2.5672  0.4184 -1.0074
   46HFI     O1 1030   3.274   2.781   0.642 -0.1378  0.2627 -0.2387
   46HFI     C1 1031   3.214   2.745   0.514  0.3463  0.0487 -0.6169
   46HFI     C2 1032   3.310   2.651   0.435  0.6365 -0.5870  0.2560
   46HFI     F1 1033   3.247   2.588   0.336 -0.2827 -0.1523 -0.4184
   46HFI     F2 1034   3.362   2.553   0.510  0.0874  0.4602 -0.3216
   46HFI     F3 1035   3.411   2.718   0.377 -0.2554  0.2482 -0.4174
   46HFI     C3 1036   3.171   2.867   0.424 -0.6680  0.5668  0.7702
   46HFI     F4 1037   3.278   2.956   0.397 -0.1749  0.0973  0.2327
   46HFI     F5 1038   3.075   2.933   0.483 -0.3898 -0.2666  0.2110
   46HFI     F6 1039   3.123   2.825   0.305 -0.5345  0.0822  0.0302
   46HFI     H1 1040   3.212   2.831   0.697  0.9624  1.1126  0.2594
   46HFI     H2 1041   3.130   2.677   0.529  0.8086 -0.0809  1.4840
   47HFI     O1 1042   3.360   0.140   3.458  0.1812 -0.1251 -0.5915
   47HFI     C1 1043   3.467   0.232   3.454 -0.3039 -0.1751 -0.1674
   47HFI     C2 1044   3.411   0.379   3.455  0.8347  0.7202 -0.2126
   47HFI     F1 1045   3.369   0.418   3.331  0.1801  0.5991 -0.4094
   47HFI     F2 1046   3.513   0.465   3.493  0.5076 -0.0864 -0.3128
   47HFI     F3 1047   3.301   0.386   3.540 -0.0046 -0.2222  0.3595
   47HFI     C3 1048   3.575   0.188   3.345  0.0484 -0.2811 -0.2630
   47HFI     F4 1049   3.609   0.052   3.350  0.3932  0.5391 -0.1240
   47HFI     F5 1050   3.688   0.255   3.377 -0.4328  0.2403  0.3451
   47HFI     F6 1051   3.539   0.218   3.217 -0.0246  0.1978 -0.0881
   47HFI     H1 1052   3.284   0.183   3.501  0.4521 -0.7888  0.5812
   47HFI     H2 1053   3.520   0.214   3.548 -0.0544 -2.0717 -0.6570
   48HFI     O1 1054   0.243   0.238   1.538 -0.0679  0.1099 -0.6895
   48HFI     C1 1055   0.124   0.160   1.499 -0.7187  0.1689  0.0459
   48HFI     C2 1056   0.162   0.041   1.406 -0.5786 -0.4100  0.8766
   48HFI     F1 1057   0.052  -0.023   1.359 -0.2324  0.2868  0.1441
   48HFI     F2 1058   0.228  -0.048   1.482  0.6657  0.2987 -0.0343
   48HFI     F3 1059   0.232   0.077   1.292  0.4137  0.2681  0.0451
   48HFI     C3 1060  -0.000   0.251   1.452  0.3561  0.0743 -0.2464
   48HFI     F4 1061  -0.096   0.188   1.379 -0.2158 -0.0687 -0.2701
   48HFI     F5 1062   0.039   0.358   1.379 -0.1711  0.0449 -1.0415
   48HFI     F6 1063  -0.058   0.298   1.565 -0.3603  0.2451 -1.0093
   48HFI     H1 1064   0.259   0.309   1.474 -1.9753  0.4488 -0.8208
   48HFI     H2 1065   0.095   0.104   1.589  0.2319  0.5434  0.6029
   49HFI     O1 1066   3.230   0.535   1.402  0.5088  0.0649  0.1847
   49HFI     C1 1067   3.246   0.677   1.393 -0.4940 -0.2845  0.5139
   49HFI     C2 1068   3.400   0.707   1.423 -0.3122 -0.0662 -0.3922
   49HFI     F1 1069   3.420   0.843   1.436 -0.3333  0.2284 -0.4573
   49HFI     F2 1070   3.486   0.670   1.323  0.5888 -0.2610 -0.5650
   49HFI     F3 1071   3.438   0.649   1.535 -0.0638 -0.2784 -0.3688
   49HFI     C3 1072   3.147   0.756   1.481 -0.0495  0.5133 -0.2722
   49HFI     F4 1073   3.026   0.748   1.423  0.5498  0.2855  0.1139
   49HFI     F5 1074   3.186   0.888   1.499  0.0259  0.1662  0.0123
   49HFI     F6 1075   3.137   0.690   1.605 -0.3781 -0.2269 -0.3711
   49HFI     H1 1076   3.253   0.495   1.488  0.5688  0.7086  0.4748
   49HFI     H2 1077   3.233   0.702   1.287  1.1761 -1.1924  0.0781
   50HFI     O1 1078   0.906   1.732   1.454  0.3114 -0.2772  0.1223
   50HFI     C1 1079   0.999   1.637   1.504 -0.7165 -1.3257 -0.0560
   50HFI     C2 1080   1.132   1.625   1.425  0.7308 -0.8167 -0.2801
   50HFI     F1 1081   1.185   1.745   1.409 -0.1984  0.2632 -0.3548
   50HFI     F2 1082   1.115   1.578   1.300 -0.0482 -0.1601  0.3818
   50HFI     F3 1083   1.222   1.551   1.493  0.5139 -0.1060 -0.5294
   50HFI     C3 1084   0.936   1.496   1.505  0.3125 -0.7274 -0.2886
   50HFI     F4 1085   0.907   1.455   1.379  0.4088  0.2970 -0.1856
   50HFI     F5 1086   0.820   1.495   1.578 -0.6407 -0.1421  0.1162
   50HFI     F6 1087   1.015   1.401   1.570 -0.0159  0.1483  0.1669
   50HFI     H1 1088   0.828   1.677   1.434 -1.1047  1.0546  1.8494
   50HFI     H2 1089   1.023   1.659   1.609 -2.8104 -2.1807  0.6312
   51HFI     O1 1090   0.020   2.954   3.177  0.2995 -1.0140  0.5494
   51HFI     C1 1091   0.064   3.007   3.308  0.0962 -0.9896 -0.6196
   51HFI     C2 1092  -0.059   3.084   3.374  0.4637 -0.0887 -0.1338
   51HFI     F1 1093  -0.039   3.131   3.503  0.1451  1.2028 -0.0053
   51HFI     F2 1094  -0.157   2.996   3.376 -0.6020  0.2404 -0.3692
   51HFI     F3 1095  -0.103   3.187   3.298  0.4795  0.3533  0.1423
   51HFI     C3 1096   0.196   3.088   3.294  0.3344 -1.0950 -0.5992
   51HFI     F4 1097   0.288   3.002   3.252 -0.0083 -0.3875 -0.1581
   51HFI     F5 1098   0.232   3.137   3.419  0.7153 -0.0912 -0.6859
   51HFI     F6 1099   0.184   3.198   3.213  0.2506 -0.4491 -0.1777
   51HFI     H1 1100  -0.014   3.029   3.124 -1.7468 -1.5004  1.1508
   51HFI     H2 1101   0.086   2.937   3.390  0.0926  0.0045  0.2508
   52HFI     O1 1102   0.844   1.484   3.251 -0.0106  1.2655  0.7330
   52HFI     C1 1103   0.795   1.524   3.388  0.0465  0.4228  0.1355
   52HFI     C2 1104   0.799   1.683   3.407  0.2642 -0.4319  0.2253
   52HFI     F1 1105   0.927   1.722   3.434  0.1676  0.4815  0.0942
   52HFI     F2 1106   0.734   1.720   3.519  0.5909  0.9050 -0.3069
   52HFI     F3 1107   0.747   1.756   3.305 -0.0424  0.5673  0.0801
   52HFI     C3 1108   0.890   1.453   3.490 -0.0480 -0.5222  0.1243
   52HFI     F4 1109   0.874   1.508   3.615 -0.0559  0.4652 -0.8948
   52HFI     F5 1110   1.022   1.472   3.450 -0.1519  0.1991 -0.9969
   52HFI     F6 1111   0.858   1.321   3.495  0.3487  0.2762 -0.3998
   52HFI     H1 1112   0.941   1.492   3.244  0.2488 -1.1327  1.2084
   52HFI     H2 1113   0.691   1.493   3.403 -0.4190  2.1195  0.6124
   53HFI     O1 1114   1.928   0.138   1.289 -0.1701 -0.1486 -0.6854
   53HFI     C1 1115   2.005   0.163   1.409  0.0647  0.0938  0.4432
   53HFI     C2 1116   2.001   0.041   1.506  0.6076 -0.1460 -0.5002
   53HFI     F1 1117   2.029  -0.077   1.450  0.0208  0.3693  0.0487
   53HFI     F2 1118   1.879   0.025   1.553 -0.1644  0.6372 -0.6683
   53HFI     F3 1119   2.095   0.047   1.614  0.0703  0.2548  0.3246
   53HFI     C3 1120   1.966   0.296   1.483  0.6288 -0.0907  0.0230
   53HFI     F4 1121   2.057   0.317   1.581  0.3120  0.0481 -0.4767
   53HFI     F5 1122   1.846   0.299   1.533 -0.5275  0.2735 -0.0675
   53HFI     F6 1123   1.973   0.401   1.393  0.1415  0.0076 -0.5559
   53HFI     H1 1124   1.837   0.118   1.316  0.2742  0.8339  1.6947
   53HFI     H2 1125   2.105   0.175   1.366 -0.2073 -1.3866 -0.6528
   54HFI     O1 1126   1.498   1.865   0.101 -0.1410  0.0390 -0.2906
   54HFI     C1 1127   1.444   1.997   0.087  0.4311 -0.4664  0.3768
   54HFI     C2 1128   1.296   2.005   0.128  0.0265 -0.5110  0.1078
   54HFI     F1 1129   1.218   1.915   0.047 -0.8999 -0.6869 -0.5754
   54HFI     F2 1130   1.243   2.130   0.118 -0.3725  0.3133  0.0401
   54HFI     F3 1131   1.296   1.975   0.257  0.1751 -0.0890 -0.2465
   54HFI     C3 1132   1.474   2.066  -0.055 -0.1663  0.3451 -0.4820
   54HFI     F4 1133   1.376   2.053  -0.143  0.3983  0.2623  0.2807
   54HFI     F5 1134   1.587   2.007  -0.103  0.1301 -0.1088  0.3697
   54HFI     F6 1135   1.494   2.199  -0.035 -0.0999  0.0758  0.0794
   54HFI     H1 1136   1.570   1.876   0.166  0.4829  0.6759 -1.0842
   54HFI     H2 1137   1.495   2.067   0.155 -0.8110 -0.3346  1.1897
   55HFI     O1 1138   1.440   3.424   1.233  0.3198 -0.3417 -0.2169
   55HFI     C1 1139   1.399   3.482   1.361 -0.5257 -0.6239  0.6221
   55HFI     C2 1140   1.505   3.579   1.416  0.7598 -0.3780  0.2051
   55HFI     F1 1141   1.510   3.687   1.338  0.4418 -0.3502  0.3221
   55HFI     F2 1142   1.632   3.538   1.407 -0.4350 -0.3332 -0.0699
   55HFI     F3 1143   1.485   3.618   1.544 -0.0882 -0.3624  0.1489
   55HFI     C3 1144   1.356   3.373   1.464  0.3911  0.1663  0.2553
   55HFI     F4 1145   1.274   3.281   1.408  0.4488 -0.0448  0.4378
   55HFI     F5 1146   1.279   3.422   1.564  0.0885 -0.4745 -0.3760
   55HFI     F6 1147   1.465   3.312   1.511  0.0429  0.0898 -0.0668
   55HFI     H1 1148   1.363   3.373   1.204 -1.6642  3.0156 -1.0797
   55HFI     H2 1149   1.315   3.550   1.343 -0.0394 -0.4141 -1.0057
   56HFI     O1 1150   1.405   2.348   2.955  0.3738 -0.2722 -0.1363
   56HFI     C1 1151   1.465   2.475   2.970 -0.0346 -0.1535  0.2058
   56HFI     C2 1152   1.367   2.577   3.028 -0.4903 -0.0514  0.1578
   56HFI     F1 1153   1.444   2.676   3.079  0.3896  0.6033 -0.3450
   56HFI     F2 1154   1.298   2.530   3.134 -0.3008 -0.2231  0.2948
   56HFI     F3 1155   1.286   2.631   2.934  0.5669 -0.2881  0.0179
   56HFI     C3 1156   1.534   2.528   2.837  0.2175  0.7238 -0.6364
   56HFI     F4 1157   1.454   2.502   2.729  0.1511 -0.0952  0.1297
   56HFI     F5 1158   1.641   2.459   2.815 -0.7837  0.0732 -0.1157
   56HFI     F6 1159   1.556   2.660   2.842 -0.0740  0.1624  0.4703
   56HFI     H1 1160   1.388   2.328   2.862  0.3496  0.7034 -0.3461
   56HFI     H2 1161   1.548   2.474   3.042  0.3328 -1.1438 -0.2297
   57HFI     O1 1162   1.084   1.129   0.300 -0.1986  0.7466  0.2698
   57HFI     C1 1163   1.082   1.104   0.443 -0.7707  0.3190  0.1982
   57HFI     C2 1164   1.227   1.086   0.507  0.7808  0.3378  0.1944
   57HFI     F1 1165   1.302   1.007   0.429  0.1287 -0.2339  0.0826
   57HFI     F2 1166   1.232   1.039   0.634 -0.4359 -0.0674 -0.5229
   57HFI     F3 1167   1.289   1.200   0.512  0.2377  0.2934  0.2249
   57HFI     C3 1168   0.992   0.984   0.466 -0.1533 -1.0987 -0.1033
   57HFI     F4 1169   1.005   0.932   0.591 -0.0390  0.3739 -0.4010
   57HFI     F5 1170   1.006   0.880   0.375 -0.0897 -0.0596  0.0051
   57HFI     F6 1171   0.873   1.029   0.453  0.4715 -0.1832  0.0386
   57HFI     H1 1172   1.113   1.045   0.260 -0.0489 -0.2361  2.3268
   57HFI     H2 1173   1.037   1.189   0.496 -0.4412  1.5299 -1.4278
   58HFI     O1 1174   2.751   1.769   0.131 -0.6253  0.2437  0.2171
   58HFI     C1 1175   2.819   1.805   0.249 -0.6064  0.2955  0.4498
   58HFI     C2 1176   2.728   1.877   0.354 -0.5257 -0.2912  0.2935
   58HFI     F1 1177   2.625   1.807   0.392 -0.0671  0.3704 -0.2588
   58HFI     F2 1178   2.676   1.991   0.304  0.1826 -0.2851  0.7578
   58HFI     F3 1179   2.793   1.903   0.471  0.0598  0.4779  0.0845
   58HFI     C3 1180   2.953   1.882   0.213  0.2020  0.4504 -0.0884
   58HFI     F4 1181   2.933   2.016   0.191  0.1548  0.1017 -0.0928
   58HFI     F5 1182   3.029   1.831   0.112 -0.0648 -0.2294 -0.4482
   58HFI     F6 1183   3.026   1.867   0.327  0.0149 -0.1408  0.0445
   58HFI     H1 1184   2.684   1.834   0.102  1.1675  2.6007  1.1958
   58HFI     H2 1185   2.854   1.717   0.305 -0.4147  1.7106  2.5629
   59HFI     O1 1186   3.327   1.269   0.245  0.4130  0.0650  0.1863
   59HFI     C1 1187   3.280   1.296   0.379  0.3046 -0.6206  0.8057
   59HFI     C2 1188   3.181   1.187   0.421  0.2493 -0.2209  0.2704
   59HFI     F1 1189   3.127   1.221   0.543 -0.4003  0.5094  0.3904
   59HFI     F2 1190   3.249   1.075   0.437  0.2455  0.3168  0.2994
   59HFI     F3 1191   3.083   1.168   0.327  0.1591  0.1312 -0.2477
   59HFI     C3 1192   3.227   1.443   0.395  0.1788  0.1821  0.1963
   59HFI     F4 1193   3.227   1.471   0.526 -0.0203 -0.5626  0.1219
   59HFI     F5 1194   3.099   1.466   0.346 -0.4209  0.4085  0.3153
   59HFI     F6 1195   3.303   1.532   0.338 -0.4525  0.1158 -0.1696
   59HFI     H1 1196   3.421   1.294   0.238  0.7734 -1.5008 -1.0452
   59HFI     H2 1197   3.354   1.281   0.459  1.5518  3.6070  0.5566
   60HFI     O1 1198   2.076   2.419   2.794  0.0776  0.0317  0.5292
   60HFI     C1 1199   2.087   2.286   2.850 -0.7122  0.4025 -0.4816
   60HFI     C2 1200   2.218   2.205   2.832 -0.0215 -0.2754  0.1650
   60HFI     F1 1201   2.326   2.292   2.838  0.4227 -0.1550  0.0731
   60HFI     F2 1202   2.224   2.138   2.717  0.5085 -0.0121 -0.0189
   60HFI     F3 1203   2.229   2.118   2.929 -0.1577  0.1315  0.0765
   60HFI     C3 1204   1.958   2.205   2.806  1.0121 -0.3810  0.6951
   60HFI     F4 1205   1.849   2.255   2.863  0.3054 -0.4231  0.8172
   60HFI     F5 1206   1.970   2.068   2.842  0.5712 -0.6054  0.1487
   60HFI     F6 1207   1.940   2.214   2.670 -0.0151 -0.0732 -0.0804
   60HFI     H1 1208   2.079   2.404   2.698  1.8285  0.8270  0.4404
   60HFI     H2 1209   2.078   2.299   2.959 -0.7990  0.3312 -0.4808
   61HFI     O1 1210   0.862   0.798   1.095  0.0491 -0.6607  0.2356
   61HFI     C1 1211   0.915   0.711   0.998 -0.0293 -0.0654  0.0358
   61HFI     C2 1212   0.891   0.557   1.031  0.6031 -0.6821  0.2620
   61HFI     F1 1213   0.763   0.535   1.063  0.4754  0.3238 -0.1136
   61HFI     F2 1214   0.968   0.510   1.135  0.0163  0.2846  0.7168
   61HFI     F3 1215   0.910   0.479   0.924  0.8069 -0.2506 -0.1971
   61HFI     C3 1216   1.063   0.744   0.964 -0.3507  0.1782 -0.6452
   61HFI     F4 1217   1.059   0.855   0.900 -0.0314  0.0673 -0.0086
   61HFI     F5 1218   1.107   0.652   0.868  0.1406  0.3155  0.5743
   61HFI     F6 1219   1.154   0.753   1.070 -0.2074  0.1701 -0.1375
   61HFI     H1 1220   0.872   0.892   1.069  2.3996 -0.7946  0.5323
   61HFI     H2 1221   0.872   0.719   0.897 -0.1932 -2.2630 -0.1003
   62HFI     O1 1222   1.798   2.610   0.232  0.8825  0.0690  0.3466
   62HFI     C1 1223   1.865   2.477   0.219  1.1420 -0.8035  0.0161
   62HFI     C2 1224   1.803   2.396   0.101  0.4163  0.0209 -0.2738
   62HFI     F1 1225   1.862   2.274   0.094 -0.5357 -0.0197  0.1326
   62HFI     F2 1226   1.824   2.459  -0.016 -0.2347 -0.9499  0.4941
   62HFI     F3 1227   1.672   2.375   0.123  0.0673  0.1154 -0.3713
   62HFI     C3 1228   1.863   2.395   0.359 -0.1533 -0.0854  0.2056
   62HFI     F4 1229   1.928   2.280   0.355  0.0745 -0.0581 -0.4361
   62HFI     F5 1230   1.737   2.371   0.404  0.3628  0.1749  0.2184
   62HFI     F6 1231   1.925   2.480   0.449  0.2413 -0.1892  0.6232
   62HFI     H1 1232   1.840   2.666   0.299 -0.9523  1.1715  0.5791
   62HFI     H2 1233   1.970   2.486   0.186  0.8213 -1.2803 -1.1664
   63HFI     O1 1234   1.048   3.046   0.551 -0.2887  0.1056  0.4911
   63HFI     C1 1235   0.941   2.967   0.508 -0.4480 -0.0076  0.6230
   63HFI     C2 1236   0.845   2.951   0.627  1.1294 -0.2739 -0.4440
   63HFI     F1 1237   0.742   2.866   0.603 -0.1305  0.0385 -0.3761
   63HFI     F2 1238   0.789   3.070   0.651  0.2348  0.3964  0.1592
   63HFI     F3 1239   0.913   2.910   0.739 -0.2949 -0.2786  0.6119
   63HFI     C3 1240   0.991   2.833   0.450 -0.0885  0.1631  0.5611
   63HFI     F4 1241   1.059   2.860   0.330  0.3781 -0.3034  0.0123
   63HFI     F5 1242   0.890   2.745   0.423 -0.0923  0.2546 -0.0786
   63HFI     F6 1243   1.078   2.766   0.536  0.7258 -0.6546 -0.5704
   63HFI     H1 1244   1.016   3.134   0.578 -0.3720  0.4806 -0.8152
   63HFI     H2 1245   0.887   3.017   0.427 -2.4942 -0.5919  1.5871
   64HFI     O1 1246   3.362   0.756   0.425  0.1760  0.0317 -0.0471
   64HFI     C1 1247   3.222   0.743   0.402  0.7282  0.3250  0.5948
   64HFI     C2 1248   3.152   0.743   0.538  0.1691 -0.0494  0.1777
   64HFI     F1 1249   3.012   0.760   0.524  0.4594 -0.0239  0.5859
   64HFI     F2 1250   3.192   0.850   0.605  0.3562 -0.2402  0.3373
   64HFI     F3 1251   3.175   0.639   0.614  0.4142  0.1493  0.4238
   64HFI     C3 1252   3.194   0.607   0.325  0.2409 -0.3353 -0.0179
   64HFI     F4 1253   3.071   0.621   0.265  0.1526  0.1983  0.1560
   64HFI     F5 1254   3.199   0.500   0.408 -0.1171  0.3238 -0.2172
   64HFI     F6 1255   3.278   0.590   0.222 -0.6998 -0.4044  0.0809
   64HFI     H1 1256   3.387   0.707   0.506 -0.1890  1.4407  0.9349
   64HFI     H2 1257   3.180   0.825   0.342  0.6862  0.0901  0.3078
   65HFI     O1 1258   0.372   3.212   1.316  0.3575 -0.2454 -0.3208
   65HFI     C1 1259   0.419   3.110   1.401 -0.4902  0.7410  0.0815
   65HFI     C2 1260   0.308   3.046   1.495 -0.0419  0.5560 -0.0549
   65HFI     F1 1261   0.358   2.941   1.558 -0.1738  0.0515  0.4362
   65HFI     F2 1262   0.209   2.998   1.410 -0.1000 -0.2424 -0.2894
   65HFI     F3 1263   0.257   3.139   1.582 -0.5545 -0.2648 -0.0711
   65HFI     C3 1264   0.541   3.159   1.489 -0.1433 -0.2796 -0.1637
   65HFI     F4 1265   0.501   3.258   1.569  0.1672  0.1212  0.2212
   65HFI     F5 1266   0.638   3.210   1.407  0.3983 -0.4198 -0.0804
   65HFI     F6 1267   0.594   3.060   1.557  0.2380  0.5105 -0.3280
   65HFI     H1 1268   0.337   3.281   1.374 -0.1153 -0.6820 -0.0847
   65HFI     H2 1269   0.452   3.028   1.335 -0.6615 -0.4807  1.4720
   66HFI     O1 1270   0.123   1.272   1.009 -0.0255  0.4693 -0.0153
   66HFI     C1 1271   0.120   1.399   0.937 -0.3268  0.2833 -0.4101
   66HFI     C2 1272   0.093   1.385   0.783  0.1988 -0.7603  0.2377
   66HFI     F1 1273   0.196   1.330   0.723 -0.1739 -0.3314  0.4433
   66HFI     F2 1274   0.063   1.505   0.729  0.2953  0.1043  0.4379
   66HFI     F3 1275  -0.005   1.298   0.763 -1.0131  0.1201 -0.3314
   66HFI     C3 1276   0.247   1.487   0.973  0.3522  0.2414  0.3950
   66HFI     F4 1277   0.254   1.604   0.908  0.5287  0.7408  0.0090
   66HFI     F5 1278   0.351   1.419   0.938  0.6598  0.2610  0.2462
   66HFI     F6 1279   0.260   1.511   1.104 -0.1677  0.7395  0.2033
   66HFI     H1 1280   0.179   1.218   0.951 -0.2570 -2.4170  2.3609
   66HFI     H2 1281   0.031   1.452   0.974 -0.4865 -1.5746  1.9786
   67HFI     O1 1282   1.799   1.291   2.468  0.0812 -0.0875 -0.0804
   67HFI     C1 1283   1.893   1.176   2.459 -0.3177  0.3235  0.7169
   67HFI     C2 1284   1.859   1.085   2.334  0.2606 -0.4863  0.7042
   67HFI     F1 1285   1.725   1.059   2.327  0.1608  0.8354  0.3167
   67HFI     F2 1286   1.925   0.970   2.328 -0.1116 -0.3148  0.2017
   67HFI     F3 1287   1.886   1.147   2.220  0.1828  0.0543 -0.2644
   67HFI     C3 1288   1.906   1.092   2.593 -0.1314  0.2408 -0.2710
   67HFI     F4 1289   1.957   1.166   2.694 -0.0212 -0.0704 -0.1605
   67HFI     F5 1290   1.990   0.990   2.586  0.0105  0.4001  0.1319
   67HFI     F6 1291   1.784   1.040   2.631 -0.6112  0.3135  0.2988
   67HFI     H1 1292   1.832   1.359   2.530  2.6449 -0.0555 -1.4041
   67HFI     H2 1293   1.995   1.206   2.429 -1.7636  2.7801 -2.0248
   68HFI     O1 1294   1.704   0.128   2.973 -0.1901 -0.6411  0.6855
   68HFI     C1 1295   1.630   0.011   3.030  0.1672 -0.6319  0.0095
   68HFI     C2 1296   1.475   0.013   3.020  0.3537  0.8580  0.0385
   68HFI     F1 1297   1.420  -0.086   3.088 -0.1040 -0.4563 -0.1353
   68HFI     F2 1298   1.431   0.021   2.894 -0.4428  0.2510 -1.0288
   68HFI     F3 1299   1.427   0.125   3.077  0.0740  0.1403  0.0117
   68HFI     C3 1300   1.676  -0.029   3.170 -0.0425  0.1912  0.1327
   68HFI     F4 1301   1.635  -0.148   3.214  0.4171  0.0590  0.3830
   68HFI     F5 1302   1.646   0.058   3.266  0.1275 -0.0932 -0.2635
   68HFI     F6 1303   1.812  -0.037   3.161  0.4245 -0.2482  0.0641
   68HFI     H1 1304   1.797   0.102   2.970 -0.4351 -1.5764  0.9369
   68HFI     H2 1305   1.652  -0.081   2.974 -1.8814 -0.5789 -0.9434
   69HFI     O1 1306   1.100   0.543   3.651 -0.3376 -0.2446  0.6930
   69HFI     C1 1307   1.085   0.510   3.796  0.3415 -1.0477 -0.3686
   69HFI     C2 1308   1.193   0.415   3.852  0.7805  0.2330  0.3586
   69HFI     F1 1309   1.162   0.286   3.817 -0.2742 -0.7053 -0.1876
   69HFI     F2 1310   1.202   0.413   3.990  0.3527  0.6024  0.1709
   69HFI     F3 1311   1.316   0.442   3.806  0.2614 -0.2538 -0.8671
   69HFI     C3 1312   0.938   0.462   3.833  0.2808 -0.4470  0.1872
   69HFI     F4 1313   0.900   0.382   3.734 -0.1014 -0.1342  0.2242
   69HFI     F5 1314   0.858   0.572   3.834 -0.0314  0.1251  0.8220
   69HFI     F6 1315   0.924   0.394   3.950  0.1481 -0.3030 -0.2619
   69HFI     H1 1316   1.042   0.618   3.630  0.5927  0.3196  0.0595
   69HFI     H2 1317   1.112   0.602   3.849 -1.0413 -0.2860 -0.9557
   70HFI     O1 1318   3.278   1.841   0.516  0.2634 -0.3998 -0.3830
   70HFI     C1 1319   3.411   1.847   0.444 -1.0396 -0.8613  0.0063
   70HFI     C2 1320   3.525   1.873   0.540  0.4835  0.0509  0.1069
   70HFI     F1 1321   3.525   1.997   0.591 -0.8848  0.4572 -0.1055
   70HFI     F2 1322   3.643   1.845   0.488 -0.5406  0.0210 -0.2420
   70HFI     F3 1323   3.513   1.790   0.649  0.5722  0.0731  0.1177
   70HFI     C3 1324   3.414   1.961   0.329 -0.0044  0.1035 -0.2312
   70HFI     F4 1325   3.539   1.977   0.282 -0.4537 -0.5810  0.4580
   70HFI     F5 1326   3.370   2.076   0.378  0.4437  0.0554 -0.4913
   70HFI     F6 1327   3.336   1.921   0.226 -0.3386 -0.5038 -0.0291
   70HFI     H1 1328   3.259   1.932   0.545  1.3193 -0.0885 -0.6328
   70HFI     H2 1329   3.428   1.755   0.387 -2.0147 -1.7259  1.0827
   71HFI     O1 1330   3.353   0.626   3.013  0.4219 -0.5250  0.0550
   71HFI     C1 1331   3.270   0.505   3.026 -0.1514  0.3458 -0.2914
   71HFI     C2 1332   3.254   0.432   2.888  0.4629 -0.2336  0.3776
   71HFI     F1 1333   3.372   0.430   2.835  0.2416  0.7818 -0.9931
   71HFI     F2 1334   3.170   0.491   2.802 -0.1154 -0.2795  0.7318
   71HFI     F3 1335   3.213   0.302   2.902 -0.2868  0.1784  0.6042
   71HFI     C3 1336   3.124   0.536   3.085 -0.1297  0.2150  0.6405
   71HFI     F4 1337   3.035   0.434   3.081  0.3684  0.6104  0.3189
   71HFI     F5 1338   3.070   0.640   3.024 -0.0009  0.0449  0.0717
   71HFI     F6 1339   3.146   0.570   3.211 -0.1313  0.9305  0.0996
   71HFI     H1 1340   3.298   0.693   2.968  1.6021  1.4591  1.4726
   71HFI     H2 1341   3.322   0.435   3.092 -1.9268 -0.8814 -0.1751
   72HFI     O1 1342   0.632   3.010   3.707  0.3985  0.1377  0.0194
   72HFI     C1 1343   0.683   2.877   3.736  0.0930 -0.2374 -0.2320
   72HFI     C2 1344   0.578   2.766   3.765  0.6151  0.3241 -0.1943
   72HFI     F1 1345   0.474   2.771   3.680 -0.4658  0.2914  0.0886
   72HFI     F2 1346   0.523   2.777   3.884 -0.2362 -0.0066  0.2561
   72HFI     F3 1347   0.630   2.642   3.755  0.2516  0.1148 -0.0618
   72HFI     C3 1348   0.813   2.881   3.839  0.1920  0.2031  0.1520
   72HFI     F4 1349   0.768   2.926   3.960 -0.4305 -0.6050 -0.5154
   72HFI     F5 1350   0.907   2.962   3.806 -0.2163  0.1518  0.1161
   72HFI     F6 1351   0.869   2.765   3.851 -0.6147  0.3085  0.0870
   72HFI     H1 1352   0.554   3.023   3.765 -0.3489  0.3200 -1.0151
   72HFI     H2 1353   0.739   2.838   3.650 -0.4872 -2.3788  0.3497
   73HFI     O1 1354   2.615   2.800   3.205 -0.5228 -0.4115 -0.6175
   73HFI     C1 1355   2.636   2.899   3.307 -0.5551  0.0364 -0.8884
   73HFI     C2 1356   2.666   3.044   3.254  0.2496  0.0640 -0.4542
   73HFI     F1 1357   2.778   3.044   3.173  0.2474 -0.0434  0.5406
   73HFI     F2 1358   2.682   3.136   3.353  0.3259  0.4242  0.5039
   73HFI     F3 1359   2.561   3.086   3.180 -0.3720  0.3199  0.5900
   73HFI     C3 1360   2.752   2.856   3.402 -1.0783 -0.5713  0.8156
   73HFI     F4 1361   2.758   2.934   3.514  0.4858  0.0137 -0.0752
   73HFI     F5 1362   2.879   2.868   3.356 -0.2399 -0.1228  0.1692
   73HFI     F6 1363   2.738   2.730   3.437 -0.3986 -0.0692  0.2370
   73HFI     H1 1364   2.652   2.712   3.222  3.0698  0.5362 -2.9192
   73HFI     H2 1365   2.550   2.914   3.373 -2.2381 -0.0001 -3.0157
   74HFI     O1 1366   2.109   0.603   2.184  0.3234  0.4496  0.4382
   74HFI     C1 1367   2.155   0.635   2.320  0.2821  0.3982 -0.1202
   74HFI     C2 1368   2.268   0.741   2.306  0.6415 -0.6207  0.0990
   74HFI     F1 1369   2.326   0.781   2.423  0.0690  0.0674 -0.6445
   74HFI     F2 1370   2.212   0.855   2.253  0.7157  0.2911 -0.2453
   74HFI     F3 1371   2.368   0.708   2.219  0.2026 -0.0606  0.4339
   74HFI     C3 1372   2.191   0.507   2.404 -0.3440 -0.7391 -0.3213
   74HFI     F4 1373   2.240   0.531   2.521  0.4695  0.4687 -0.0074
   74HFI     F5 1374   2.285   0.435   2.335 -0.1909  0.0713  0.7846
   74HFI     F6 1375   2.086   0.421   2.417 -0.0185  0.2031  0.2040
   74HFI     H1 1376   2.181   0.583   2.122 -0.4574  2.0133 -1.0155
   74HFI     H2 1377   2.067   0.684   2.364 -0.5461 -1.1278 -0.0498
   75HFI     O1 1378   1.729   1.719   1.296  0.4366 -0.2840 -0.1478
   75HFI     C1 1379   1.703   1.805   1.417 -0.4122  0.4302 -0.5633
   75HFI     C2 1380   1.840   1.874   1.462 -0.0009  0.1183  0.3462
   75HFI     F1 1381   1.940   1.788   1.476 -0.1009 -0.1151 -0.1106
   75HFI     F2 1382   1.828   1.937   1.580 -0.6333 -0.3234 -0.0049
   75HFI     F3 1383   1.871   1.969   1.370  0.0160 -0.1257  0.0046
   75HFI     C3 1384   1.627   1.734   1.529 -0.5427 -0.9014  0.3328
   75HFI     F4 1385   1.697   1.633   1.585  0.3055  0.3732  0.3712
   75HFI     F5 1386   1.515   1.687   1.475 -0.6042  0.2771  0.1314
   75HFI     F6 1387   1.591   1.819   1.624 -0.9628 -0.2477  0.0873
   75HFI     H1 1388   1.771   1.637   1.327  1.2552 -0.2178 -1.0541
   75HFI     H2 1389   1.630   1.885   1.398 -0.7253  0.3083  0.1083
   76HFI     O1 1390   0.185   2.122   1.597 -0.2578  0.2227  0.2787
   76HFI     C1 1391   0.132   2.190   1.481  0.1212  0.0394  0.1043
   76HFI     C2 1392   0.056   2.087   1.392  0.6764  0.3421  0.1896
   76HFI     F1 1393   0.135   2.015   1.313 -0.2631  0.2085 -0.7024
   76HFI     F2 1394  -0.032   2.156   1.315  0.0144 -0.2945 -0.2859
   76HFI     F3 1395  -0.018   2.000   1.467 -0.1314 -0.2253  0.0497
   76HFI     C3 1396   0.244   2.271   1.414 -0.4038 -0.2989  0.0032
   76HFI     F4 1397   0.196   2.343   1.314 -0.1300  0.2264  0.2456
   76HFI     F5 1398   0.343   2.190   1.362 -0.0434  0.0484 -0.2723
   76HFI     F6 1399   0.307   2.354   1.501 -0.1874 -0.2537 -0.6423
   76HFI     H1 1400   0.251   2.055   1.571  0.1494  0.6359  0.2534
   76HFI     H2 1401   0.062   2.268   1.514  0.6831  0.0506  1.3006
   77HFI     O1 1402   2.000   0.595   3.197 -0.5241  0.5486 -0.5365
   77HFI     C1 1403   2.011   0.489   3.297  0.3031  0.3668 -0.6299
   77HFI     C2 1404   2.160   0.462   3.335 -0.4433 -0.3419 -0.2303
   77HFI     F1 1405   2.228   0.575   3.324  0.1963 -0.6569 -0.4634
   77HFI     F2 1406   2.225   0.376   3.259  0.2928 -0.0676  0.5804
   77HFI     F3 1407   2.174   0.427   3.466  0.0645 -0.5915 -0.2501
   77HFI     C3 1408   1.925   0.368   3.258  0.0598 -0.2404  0.5217
   77HFI     F4 1409   1.798   0.406   3.259 -0.5895  0.2429  0.0768
   77HFI     F5 1410   1.936   0.262   3.342 -0.5302 -0.1153 -0.1949
   77HFI     F6 1411   1.962   0.331   3.134 -0.2648  0.1782 -0.1554
   77HFI     H1 1412   2.096   0.605   3.179  0.0983 -1.8595  1.2182
   77HFI     H2 1413   1.966   0.527   3.390 -1.9152 -0.9514 -1.1441
   78HFI     O1 1414   2.508   2.105   0.716 -0.5045  0.0064 -0.1027
   78HFI     C1 1415   2.369   2.111   0.683  0.2571  0.2980 -0.2438
   78HFI     C2 1416   2.344   2.142   0.531 -0.3339  0.4558 -0.6262
   78HFI     F1 1417   2.220   2.141   0.496  0.2038 -0.4550 -0.0022
   78HFI     F2 1418   2.409   2.049   0.459 -0.1164  0.1883 -0.1930
   78HFI     F3 1419   2.390   2.265   0.493 -0.4222  0.0583  0.8786
   78HFI     C3 1420   2.292   2.211   0.781  0.3857  0.2076  1.2226
   78HFI     F4 1421   2.315   2.343   0.748 -0.2876  0.3652  0.1556
   78HFI     F5 1422   2.324   2.193   0.906  1.0893 -0.3358 -0.0755
   78HFI     F6 1423   2.160   2.193   0.776  0.0513 -0.4858 -0.1696
   78HFI     H1 1424   2.561   2.104   0.635 -3.1108 -0.3375 -1.8513
   78HFI     H2 1425   2.321   2.013   0.692 -0.8402  0.8053 -0.5808
   79HFI     O1 1426   1.583   1.431   0.297  0.3647 -0.0370 -0.0196
   79HFI     C1 1427   1.610   1.300   0.346 -0.2768  0.4823 -0.2644
   79HFI     C2 1428   1.758   1.295   0.392 -0.2290 -0.1574 -0.8683
   79HFI     F1 1429   1.839   1.332   0.288  0.1543  0.1321  0.3043
   79HFI     F2 1430   1.799   1.173   0.428  0.1204  0.5044 -0.7301
   79HFI     F3 1431   1.777   1.382   0.495  0.4071 -0.4752  0.2489
   79HFI     C3 1432   1.583   1.186   0.240 -0.2890 -0.0502 -0.1978
   79HFI     F4 1433   1.595   1.065   0.300 -0.4986  0.0009 -0.0813
   79HFI     F5 1434   1.670   1.194   0.136  0.0837 -0.7809 -0.4467
   79HFI     F6 1435   1.455   1.195   0.200 -0.3719  0.2237 -0.5038
   79HFI     H1 1436   1.619   1.445   0.207 -0.4660  0.6854 -0.2493
   79HFI     H2 1437   1.545   1.280   0.433  1.0313 -0.7864  0.4583
   80HFI     O1 1438   1.401   2.839   0.623 -0.0456 -0.0528 -0.5699
   80HFI     C1 1439   1.487   2.722   0.652 -0.4071 -0.0470  0.7299
   80HFI     C2 1440   1.643   2.766   0.651  0.4397  0.1791 -0.3328
   80HFI     F1 1441   1.715   2.661   0.679  0.2780 -0.3937 -0.1205
   80HFI     F2 1442   1.669   2.861   0.740 -0.1703 -0.4806 -0.1109
   80HFI     F3 1443   1.684   2.813   0.526  0.2142  0.1313 -0.0732
   80HFI     C3 1444   1.446   2.598   0.553 -0.0670  0.8154 -0.0583
   80HFI     F4 1445   1.452   2.478   0.622  0.0550 -0.1768 -0.2849
   80HFI     F5 1446   1.523   2.582   0.442 -0.2715  0.1983  0.5384
   80HFI     F6 1447   1.318   2.610   0.513 -0.6659  0.0551  0.3248
   80HFI     H1 1448   1.371   2.829   0.531  0.9147 -0.0758 -0.8811
   80HFI     H2 1449   1.466   2.694   0.756  0.0748 -0.9997  0.5790
   81HFI     O1 1450   0.716   2.102   3.535  0.1596  0.1110 -0.6347
   81HFI     C1 1451   0.584   2.150   3.492  0.1520 -0.3748 -0.1126
   81HFI     C2 1452   0.483   2.174   3.612  0.3954  0.6681  0.1400
   81HFI     F1 1453   0.434   2.063   3.663  0.0960 -0.1030  0.4177
   81HFI     F2 1454   0.372   2.247   3.571 -0.5038  0.1581 -0.0571
   81HFI     F3 1455   0.540   2.244   3.709 -0.2806  0.0671  0.3492
   81HFI     C3 1456   0.534   2.049   3.382  0.3998  0.2598 -0.1191
   81HFI     F4 1457   0.625   2.026   3.286  0.2247  0.2663  0.0723
   81HFI     F5 1458   0.412   2.094   3.336  0.0205 -0.0883  0.5252
   81HFI     F6 1459   0.497   1.929   3.427 -0.1855  0.3196 -0.4753
   81HFI     H1 1460   0.711   2.028   3.597 -0.4094 -0.1207 -0.9656
   81HFI     H2 1461   0.605   2.241   3.435  0.2438 -1.8788 -2.6112
   82HFI     O1 1462   1.030   1.554   0.865  0.4029  0.1120 -0.2844
   82HFI     C1 1463   1.014   1.624   0.988  0.1370  0.0363 -0.5997
   82HFI     C2 1464   0.868   1.616   1.048 -0.3445  0.1530 -0.3096
   82HFI     F1 1465   0.869   1.687   1.164 -0.7005 -0.4794  0.3615
   82HFI     F2 1466   0.837   1.485   1.080 -0.2919 -0.1782  0.3143
   82HFI     F3 1467   0.770   1.661   0.961 -0.4471 -0.1660 -0.0195
   82HFI     C3 1468   1.057   1.774   0.966  0.6294 -0.1406  0.1984
   82HFI     F4 1469   0.972   1.838   0.885  0.1177  0.4852  0.0643
   82HFI     F5 1470   1.181   1.783   0.909 -0.0166  0.4181  0.1490
   82HFI     F6 1471   1.069   1.845   1.082 -0.2642 -0.4790  0.0045
   82HFI     H1 1472   1.112   1.588   0.826 -0.2210  0.7696 -1.0683
   82HFI     H2 1473   1.087   1.584   1.060 -0.1409 -1.9229 -1.3711
   83HFI     O1 1474   0.198   3.267   0.188  0.2651 -0.3561 -0.2459
   83HFI     C1 1475   0.203   3.214   0.054  0.1690 -0.0324  0.3083
   83HFI     C2 1476   0.284   3.083   0.036  0.6024 -0.3189 -1.0654
   83HFI     F1 1477   0.259   3.030  -0.082  0.2315 -0.1608  0.2066
   83HFI     F2 1478   0.258   3.004   0.144 -0.4038 -0.3367 -0.1363
   83HFI     F3 1479   0.415   3.118   0.032 -0.0014  0.1754  0.0790
   83HFI     C3 1480   0.253   3.330  -0.044  0.9269  0.0426  0.2458
   83HFI     F4 1481   0.145   3.405  -0.076 -0.0506 -0.1508  0.2403
   83HFI     F5 1482   0.298   3.286  -0.159 -0.3089  0.4226  0.3310
   83HFI     F6 1483   0.350   3.404   0.010 -0.1045  0.3117  0.8142
   83HFI     H1 1484   0.289   3.268   0.223  0.5302 -0.7181 -0.9106
   83HFI     H2 1485   0.101   3.190   0.021 -0.1766  0.1584  1.2139
   84HFI     O1 1486   2.040   2.560   1.161 -0.7190 -0.0324  0.5384
   84HFI     C1 1487   2.006   2.618   1.030 -0.3729 -0.6180 -0.5520
   84HFI     C2 1488   1.901   2.737   1.050 -0.3489  0.4911  0.0140
   84HFI     F1 1489   1.938   2.823   1.149 -0.1378 -0.1553  0.1343
   84HFI     F2 1490   1.782   2.691   1.092 -0.1106  0.3915  0.2331
   84HFI     F3 1491   1.881   2.804   0.936 -0.1349  0.2172  0.7965
   84HFI     C3 1492   1.957   2.509   0.931  0.2150 -0.1394  0.3127
   84HFI     F4 1493   1.837   2.452   0.966 -0.1762 -0.3148 -0.0964
   84HFI     F5 1494   2.050   2.411   0.941 -0.4452  0.0449 -0.0077
   84HFI     F6 1495   1.951   2.561   0.806 -0.2381  0.3154  0.2816
   84HFI     H1 1496   2.028   2.634   1.223 -1.4073  0.7947 -0.5587
   84HFI     H2 1497   2.099   2.650   0.982 -0.7840 -2.5338 -2.6668
   85HFI     O1 1498   1.574   0.440   0.832  0.3646 -0.7228 -0.7515
   85HFI     C1 1499   1.452   0.412   0.912 -0.3537  0.7869  0.5279
   85HFI     C2 1500   1.433   0.525   1.018 -0.7318  0.3452 -0.2161
   85HFI     F1 1501   1.447   0.649   0.978 -0.1931 -0.3517 -0.5631
   85HFI     F2 1502   1.518   0.513   1.121  0.3373 -0.0401  0.0864
   85HFI     F3 1503   1.311   0.521   1.077 -0.3645 -0.0951  0.2269
   85HFI     C3 1504   1.451   0.267   0.973 -0.2881  0.2333  0.0020
   85HFI     F4 1505   1.557   0.237   1.045  0.2035  0.1445 -0.1905
   85HFI     F5 1506   1.450   0.176   0.875 -0.0192  0.5578 -0.2148
   85HFI     F6 1507   1.355   0.239   1.059 -0.4006 -0.0363  0.0394
   85HFI     H1 1508   1.655   0.433   0.885  1.4572  1.9964 -1.9439
   85HFI     H2 1509   1.369   0.409   0.840  0.0008 -0.0496  0.1504
   86HFI     O1 1510   0.264   1.487   1.402  0.8046 -0.2365  0.8254
   86HFI     C1 1511   0.315   1.606   1.469 -0.3679  0.7727  0.1299
   86HFI     C2 1512   0.232   1.727   1.431  0.2746 -0.4386  0.1277
   86HFI     F1 1513   0.264   1.829   1.512 -0.3932  0.5464 -0.1844
   86HFI     F2 1514   0.105   1.697   1.456 -0.2306  0.0689 -0.1620
   86HFI     F3 1515   0.239   1.754   1.301 -0.2923  0.2082 -0.0589
   86HFI     C3 1516   0.466   1.614   1.465  0.2890  0.2513 -0.0821
   86HFI     F4 1517   0.520   1.660   1.343 -0.3722  0.3082  0.3391
   86HFI     F5 1518   0.514   1.491   1.508  0.2845 -0.4364 -0.0217
   86HFI     F6 1519   0.506   1.705   1.565  0.0105  0.3700  0.6435
   86HFI     H1 1520   0.274   1.498   1.306 -2.9484  0.5873  0.4449
   86HFI     H2 1521   0.317   1.591   1.578  2.1483 -3.0363 -0.3495
   87HFI     O1 1522   0.791   2.997   1.273 -0.0615 -0.3066  0.0359
   87HFI     C1 1523   0.777   3.048   1.133 -0.2358 -0.5396  0.2885
   87HFI     C2 1524   0.684   2.966   1.038  0.8114  0.0221  0.3153
   87HFI     F1 1525   0.675   3.013   0.915 -0.8047 -0.0687  0.2262
   87HFI     F2 1526   0.556   2.957   1.091 -0.0154  0.3380  0.0494
   87HFI     F3 1527   0.731   2.846   1.031  0.4135  0.7007 -0.0927
   87HFI     C3 1528   0.919   3.054   1.066  0.4951  0.0837  0.3661
   87HFI     F4 1529   0.917   3.139   0.953 -0.1839  0.6778 -0.7176
   87HFI     F5 1530   0.969   2.936   1.033 -0.4809 -0.4788  0.0223
   87HFI     F6 1531   1.004   3.110   1.158  0.9405 -0.5164 -0.1151
   87HFI     H1 1532   0.836   2.910   1.278 -1.6159 -1.0455  2.1413
   87HFI     H2 1533   0.745   3.153   1.122 -0.4928 -0.6985 -0.5112
   88HFI     O1 1534   2.336   1.626   2.593 -0.0183  0.0422 -0.1930
   88HFI     C1 1535   2.267   1.608   2.723  0.2218  0.2702  0.3370
   88HFI     C2 1536   2.177   1.481   2.737 -0.5632 -0.0334 -0.1841
   88HFI     F1 1537   2.245   1.370   2.696 -0.4691 -0.2868 -0.0940
   88HFI     F2 1538   2.076   1.482   2.651  0.0782  0.3381  0.1264
   88HFI     F3 1539   2.131   1.469   2.864 -0.2156 -0.5066 -0.1028
   88HFI     C3 1540   2.201   1.737   2.771  0.3917  0.3944  0.0111
   88HFI     F4 1541   2.293   1.835   2.773  0.9466 -0.4596 -0.0934
   88HFI     F5 1542   2.154   1.723   2.897  0.1298  0.2482  0.1874
   88HFI     F6 1543   2.101   1.778   2.697 -0.1452  0.1760  0.2535
   88HFI     H1 1544   2.384   1.711   2.591 -1.8172  1.0686 -0.9030
   88HFI     H2 1545   2.347   1.572   2.790  0.0305 -1.2704 -0.2524
   89HFI     O1 1546   2.280   1.282   3.249  0.8041 -0.6330  0.2875
   89HFI     C1 1547   2.135   1.274   3.219  0.9517  0.5181 -0.1590
   89HFI     C2 1548   2.051   1.334   3.334 -0.5606 -0.7398 -0.0677
   89HFI     F1 1549   1.916   1.324   3.321 -0.0242 -0.0497  0.2156
   89HFI     F2 1550   2.077   1.465   3.352 -0.1510  0.0518  0.5041
   89HFI     F3 1551   2.091   1.274   3.450 -0.2461 -0.7491  0.2560
   89HFI     C3 1552   2.098   1.138   3.176 -0.5504  0.1018 -0.0727
   89HFI     F4 1553   2.201   1.071   3.122 -0.3367 -0.0165 -0.2511
   89HFI     F5 1554   2.003   1.143   3.084 -0.3911  0.0601  0.1484
   89HFI     F6 1555   2.047   1.071   3.282  0.2111  0.7497  0.1514
   89HFI     H1 1556   2.328   1.247   3.172 -0.8199  1.5281 -1.7818
   89HFI     H2 1557   2.104   1.330   3.130 -0.9418  1.1355  0.8734
   90HFI     O1 1558   1.946   2.841   0.386  0.4308  0.6143  0.2635
   90HFI     C1 1559   2.077   2.884   0.441 -0.9233  0.3331  0.9033
   90HFI     C2 1560   2.166   2.757   0.457 -0.3482  0.2144 -0.1514
   90HFI     F1 1561   2.282   2.809   0.503  0.3724  0.4622 -0.4834
   90HFI     F2 1562   2.185   2.691   0.349 -0.6014  0.2543 -0.5129
   90HFI     F3 1563   2.119   2.669   0.553 -0.0571  0.5923 -0.3787
   90HFI     C3 1564   2.055   2.971   0.567 -0.6767  0.1639 -0.8263
   90HFI     F4 1565   1.993   3.087   0.542 -0.3686 -0.4533 -0.3029
   90HFI     F5 1566   2.171   3.002   0.626 -0.0914  0.2393  0.6296
   90HFI     F6 1567   1.972   2.910   0.652 -0.2657  0.0439  0.4095
   90HFI     H1 1568   1.882   2.913   0.398 -0.3630 -0.2725  1.5685
   90HFI     H2 1569   2.125   2.953   0.371  0.1017  0.2626  1.5238
   91HFI     O1 1570   2.518   1.212   2.446 -0.4829 -0.3303 -0.0188
   91HFI     C1 1571   2.451   1.330   2.384  0.2274 -0.5476 -0.3013
   91HFI     C2 1572   2.314   1.300   2.328 -0.0542 -0.2820 -0.3244
   91HFI     F1 1573   2.244   1.402   2.283  0.5204 -0.3639  0.1050
   91HFI     F2 1574   2.236   1.243   2.429  0.4120 -0.0609  0.5831
   91HFI     F3 1575   2.321   1.210   2.230 -0.1281 -0.6260 -0.2229
   91HFI     C3 1576   2.535   1.406   2.280 -0.1494  0.4963 -0.0178
   91HFI     F4 1577   2.579   1.318   2.183  0.1096 -0.0213  0.2899
   91HFI     F5 1578   2.647   1.466   2.341  0.8041  0.2106  0.3108
   91HFI     F6 1579   2.464   1.503   2.219  0.1032  0.2556 -0.0177
   91HFI     H1 1580   2.508   1.140   2.380 -2.5940 -1.1377  1.1464
   91HFI     H2 1581   2.435   1.403   2.464  0.3097 -0.0730 -0.7241
   92HFI     O1 1582   1.440   0.662   1.434  0.0595 -0.3902 -0.2408
   92HFI     C1 1583   1.565   0.680   1.498 -0.2315 -0.3477  0.2157
   92HFI     C2 1584   1.639   0.802   1.422 -0.0736  0.2770 -0.9874
   92HFI     F1 1585   1.558   0.905   1.402 -0.4201 -0.4510  0.1459
   92HFI     F2 1586   1.685   0.771   1.303  0.2635  0.5730 -0.3862
   92HFI     F3 1587   1.747   0.846   1.494 -0.1758 -0.4675  0.1723
   92HFI     C3 1588   1.655   0.559   1.513 -0.1060  0.0427 -0.8611
   92HFI     F4 1589   1.595   0.469   1.596  0.5806 -0.2092 -0.4130
   92HFI     F5 1590   1.782   0.589   1.557 -0.6798  0.2635 -0.6969
   92HFI     F6 1591   1.667   0.492   1.391  0.6376 -0.4790 -0.0726
   92HFI     H1 1592   1.451   0.653   1.338 -0.1654  0.8187 -0.3904
   92HFI     H2 1593   1.547   0.719   1.599  0.1347  0.8852 -0.1958
   93HFI     O1 1594   3.046   3.152   3.664 -0.5164  0.0720 -0.3218
   93HFI     C1 1595   2.985   3.200   3.781 -0.4278 -1.2134  0.0774
   93HFI     C2 1596   3.038   3.135   3.912  0.3296  0.6903 -0.4809
   93HFI     F1 1597   2.978   3.183   4.019  0.1308 -0.3938 -0.4718
   93HFI     F2 1598   3.168   3.154   3.920 -0.4995  0.5232  0.2158
   93HFI     F3 1599   3.010   3.002   3.896 -0.7543 -0.1005 -0.0216
   93HFI     C3 1600   2.836   3.185   3.761  0.5339 -0.0310 -0.1416
   93HFI     F4 1601   2.766   3.241   3.859  0.4362 -0.0121 -0.0340
   93HFI     F5 1602   2.798   3.059   3.755  0.0134 -0.4881  0.0248
   93HFI     F6 1603   2.797   3.246   3.650 -0.0999 -0.0417 -0.2757
   93HFI     H1 1604   3.007   3.066   3.642  0.2422  0.0492 -1.6577
   93HFI     H2 1605   3.001   3.308   3.786  2.5422 -1.5874 -0.0495
   94HFI     O1 1606   0.479   2.230   0.962 -0.3413 -0.4356 -0.5862
   94HFI     C1 1607   0.383   2.142   0.895 -0.0609 -0.2217  0.2972
   94HFI     C2 1608   0.283   2.077   0.995  0.5156 -0.3037  0.2115
   94HFI     F1 1609   0.205   1.983   0.933  0.7020 -0.3161  0.3482
   94HFI     F2 1610   0.200   2.166   1.049  0.1863 -0.2763 -0.0549
   94HFI     F3 1611   0.354   2.007   1.080 -0.3254  0.6291  0.4057
   94HFI     C3 1612   0.454   2.045   0.800  0.3997  0.3146  0.4498
   94HFI     F4 1613   0.553   1.969   0.865 -0.4043  0.2674 -0.4204
   94HFI     F5 1614   0.517   2.112   0.699 -0.0056  0.0832 -0.1645
   94HFI     F6 1615   0.374   1.957   0.739 -0.0795  0.1282  0.0046
   94HFI     H1 1616   0.512   2.191   1.045  1.6236  0.6388 -0.8241
   94HFI     H2 1617   0.314   2.202   0.835 -0.9767  0.3298  1.8687
   95HFI     O1 1618   2.180   3.225   3.800 -0.2396 -0.1399 -0.5215
   95HFI     C1 1619   2.278   3.329   3.775 -0.1776  0.1554 -0.4006
   95HFI     C2 1620   2.395   3.329   3.870  0.0750  0.7077 -0.9337
   95HFI     F1 1621   2.365   3.373   3.998 -0.2616 -0.1122 -0.2385
   95HFI     F2 1622   2.493   3.407   3.830 -0.7653  0.2508  0.3069
   95HFI     F3 1623   2.448   3.211   3.890 -0.9122  0.5988  0.0119
   95HFI     C3 1624   2.209   3.461   3.754  0.7291  0.1061  0.2199
   95HFI     F4 1625   2.102   3.461   3.670 -0.7962  0.3165  0.5246
   95HFI     F5 1626   2.284   3.563   3.712  0.3654 -0.3013 -0.5614
   95HFI     F6 1627   2.151   3.502   3.871  0.4625  0.2574 -0.4455
   95HFI     H1 1628   2.092   3.265   3.807 -0.2867 -0.4691  0.8454
   95HFI     H2 1629   2.319   3.315   3.674 -2.0109 -0.7852 -1.0440
   96HFI     O1 1630   2.839   3.427   0.518  0.4091  0.2754 -0.3021
   96HFI     C1 1631   2.790   3.564   0.546  0.3232  0.1781 -0.9236
   96HFI     C2 1632   2.681   3.603   0.438  0.0553  0.3390 -0.0263
   96HFI     F1 1633   2.626   3.726   0.458 -0.2024 -0.1993 -0.1535
   96HFI     F2 1634   2.590   3.506   0.444  0.4482 -0.0469 -0.5921
   96HFI     F3 1635   2.729   3.601   0.312 -0.0363  0.0584  0.2058
   96HFI     C3 1636   2.898   3.673   0.547  0.0066  0.6180  0.3070
   96HFI     F4 1637   2.975   3.669   0.432 -0.5588  0.1307 -0.3272
   96HFI     F5 1638   2.982   3.662   0.656  0.2034  0.5197  0.5428
   96HFI     F6 1639   2.853   3.798   0.557  0.5731  0.0060  0.0182
   96HFI     H1 1640   2.931   3.422   0.547  0.6773  0.6067 -1.0898
   96HFI     H2 1641   2.743   3.567   0.645  2.7523  1.0518  0.2326
   97HFI     O1 1642   2.619   3.367   1.588  0.0891 -0.0919  0.5605
   97HFI     C1 1643   2.487   3.407   1.537 -0.5389 -0.0800 -0.1060
   97HFI     C2 1644   2.437   3.309   1.426  0.6891 -0.1754  0.1870
   97HFI     F1 1645   2.436   3.180   1.470  0.4362 -0.0363 -0.2447
   97HFI     F2 1646   2.524   3.318   1.316  0.0725 -0.5966  0.1780
   97HFI     F3 1647   2.309   3.337   1.391 -0.0680  0.3696  0.3659
   97HFI     C3 1648   2.474   3.559   1.503 -0.6108  0.7398 -0.6582
   97HFI     F4 1649   2.353   3.590   1.459 -0.2244 -0.2776  0.0237
   97HFI     F5 1650   2.554   3.586   1.406  0.0689 -0.7728 -0.2635
   97HFI     F6 1651   2.512   3.633   1.613  0.4357  0.2978 -0.2085
   97HFI     H1 1652   2.679   3.383   1.514  0.1383  1.0380  0.8427
   97HFI     H2 1653   2.421   3.402   1.625 -0.5044 -1.7063 -0.1454
   98HFI     O1 1654   0.612   3.319   0.756  0.2301  0.3467 -0.0817
   98HFI     C1 1655   0.499   3.369   0.824 -0.2341  0.2626  0.5945
   98HFI     C2 1656   0.445   3.502   0.768  0.1556  0.3881  0.0330
   98HFI     F1 1657   0.316   3.513   0.793  0.1179 -0.1778 -0.0644
   98HFI     F2 1658   0.453   3.504   0.628  0.1596  0.0072  0.1487
   98HFI     F3 1659   0.505   3.611   0.820 -0.4831  0.5651 -0.4782
   98HFI     C3 1660   0.521   3.381   0.976 -0.2995 -0.4394 -0.6783
   98HFI     F4 1661   0.413   3.420   1.036 -0.5405 -0.2504 -0.2338
   98HFI     F5 1662   0.625   3.466   1.011 -0.0796 -0.3906 -0.2311
   98HFI     F6 1663   0.557   3.260   1.027  0.3456  0.0502 -1.0607
   98HFI     H1 1664   0.607   3.222   0.744 -1.9109  0.6075 -1.4487
   98HFI     H2 1665   0.416   3.298   0.819 -1.8585  2.1301  0.5200
   99HFI     O1 1666   2.057   0.937   1.248  0.0860  0.5112 -0.2363
   99HFI     C1 1667   2.084   0.908   1.390  0.3246 -0.1219 -0.4042
   99HFI     C2 1668   2.181   1.017   1.452  0.0131 -0.6891 -0.1340
   99HFI     F1 1669   2.186   1.017   1.590  0.9803 -0.0845  0.4272
   99HFI     F2 1670   2.147   1.140   1.415  0.4448 -0.2084 -0.3827
   99HFI     F3 1671   2.308   1.000   1.409  0.3648 -0.5126  0.0343
   99HFI     C3 1672   2.110   0.755   1.411 -0.4911  0.6105 -0.1521
   99HFI     F4 1673   2.249   0.728   1.382 -0.3608  0.3756 -0.0845
   99HFI     F5 1674   2.031   0.681   1.325 -0.1675 -0.0398  0.1458
   99HFI     F6 1675   2.084   0.720   1.542 -0.0539  0.0831  0.1744
   99HFI     H1 1676   2.140   0.922   1.200  0.5449  1.1851  0.3234
   99HFI     H2 1677   1.992   0.927   1.446  0.8692  1.8022 -0.1235
  100HFI     O1 1678   0.932   2.204   1.313 -0.0489 -0.4346  0.3905
  100HFI     C1 1679   0.857   2.079   1.359 -0.2916  0.6925 -0.0727
  100HFI     C2 1680   0.741   2.036   1.253 -0.5829  0.0746 -1.0512
  100HFI     F1 1681   0.688   1.916   1.289 -0.0294  0.5088 -0.4146
  100HFI     F2 1682   0.782   2.020   1.129 -0.2503  0.2735 -0.0333
  100HFI     F3 1683   0.636   2.121   1.248  0.0410 -0.2713 -0.1706
  100HFI     C3 1684   0.789   2.105   1.492  0.2981 -0.4007 -0.2733
  100HFI     F4 1685   0.720   2.219   1.485  0.6422 -0.1037 -0.4025
  100HFI     F5 1686   0.889   2.122   1.589 -0.1105 -0.2169 -0.2464
  100HFI     F6 1687   0.713   2.006   1.540 -0.0248  0.0742  0.0531
  100HFI     H1 1688   0.869   2.278   1.319 -0.9765 -1.3748  2.6983
  100HFI     H2 1689   0.919   1.991   1.381 -2.4052 -1.2429 -1.7048
  101HFI     O1 1690   0.625   0.323   0.523 -0.1252  0.1956 -0.1611
  101HFI     C1 1691   0.596   0.466   0.523  0.0104  0.6748 -0.2277
  101HFI     C2 1692   0.712   0.543   0.449 -0.0081 -0.2757 -0.1041
  101HFI     F1 1693   0.687   0.675   0.462  0.1107  0.0940 -0.5795
  101HFI     F2 1694   0.707   0.509   0.314 -0.1549  0.3825  0.6438
  101HFI     F3 1695   0.837   0.513   0.502  0.1974  0.4249  0.3524
  101HFI     C3 1696   0.562   0.514   0.669  0.1662 -0.0275  0.7407
  101HFI     F4 1697   0.478   0.425   0.731 -0.2691 -0.2459  0.3827
  101HFI     F5 1698   0.491   0.626   0.658  0.1763  0.3666  0.5084
  101HFI     F6 1699   0.671   0.538   0.748  0.1504  0.0323 -0.1213
  101HFI     H1 1700   0.631   0.290   0.614  0.0844 -1.8609 -0.9111
  101HFI     H2 1701   0.505   0.483   0.465 -1.6224  0.7341  2.2660
  102HFI     O1 1702   2.358   2.907   3.721 -0.0727 -0.3570  0.0211
  102HFI     C1 1703   2.311   2.779   3.763  0.3631  0.3890  0.7765
  102HFI     C2 1704   2.169   2.790   3.837 -0.1015  0.1654  0.1645
  102HFI     F1 1705   2.177   2.868   3.947  1.1391 -0.0536  0.7176
  102HFI     F2 1706   2.133   2.667   3.867 -0.0459  0.0479 -0.3087
  102HFI     F3 1707   2.074   2.842   3.755 -0.1808 -0.3628 -0.1055
  102HFI     C3 1708   2.421   2.703   3.837 -0.3169 -0.0374 -0.1539
  102HFI     F4 1709   2.449   2.768   3.951  0.3334 -0.0013 -0.5313
  102HFI     F5 1710   2.534   2.706   3.763 -0.0671 -0.7175  0.3071
  102HFI     F6 1711   2.390   2.576   3.856  0.4992 -0.2451 -0.7961
  102HFI     H1 1712   2.411   2.957   3.785  0.6104 -0.8414 -0.1680
  102HFI     H2 1713   2.275   2.724   3.675  0.4920  0.4326  0.6960
  103HFI     O1 1714   1.157   2.737   1.351  0.2595 -0.3926  0.4327
  103HFI     C1 1715   1.242   2.836   1.414 -0.2554 -0.7111 -0.1470
  103HFI     C2 1716   1.360   2.771   1.489 -0.4235 -0.1304  0.0806
  103HFI     F1 1717   1.310   2.674   1.571 -0.1960  0.3193 -0.1647
  103HFI     F2 1718   1.429   2.855   1.573 -0.2574  0.6075  0.3355
  103HFI     F3 1719   1.449   2.712   1.404  0.5575  0.1593 -0.1699
  103HFI     C3 1720   1.158   2.935   1.496  0.9048  0.3692 -0.1672
  103HFI     F4 1721   1.091   2.869   1.601 -0.1395 -0.4848 -0.1789
  103HFI     F5 1722   1.065   2.989   1.412  0.3290 -0.0059 -0.4495
  103HFI     F6 1723   1.237   3.042   1.546  0.3437  0.8293 -0.3131
  103HFI     H1 1724   1.210   2.677   1.297  0.2365  0.7513 -0.8872
  103HFI     H2 1725   1.289   2.903   1.340 -1.0093  1.6317  1.4572
  104HFI     O1 1726   2.259   2.877   3.296  0.4434  0.3681 -0.7936
  104HFI     C1 1727   2.189   2.979   3.371  0.8204 -0.3633  0.2479
  104HFI     C2 1728   2.036   2.952   3.349  0.2004 -0.1971 -0.6228
  104HFI     F1 1729   2.000   2.828   3.383  0.3725  0.0206  0.3773
  104HFI     F2 1730   2.000   2.969   3.216  0.2565 -0.3461  0.0905
  104HFI     F3 1731   1.961   3.031   3.427  0.3563 -0.3294  0.0295
  104HFI     C3 1732   2.238   3.121   3.348 -0.1663  0.6965 -0.1808
  104HFI     F4 1733   2.218   3.163   3.223  0.2313 -0.3344  0.3910
  104HFI     F5 1734   2.365   3.122   3.386 -0.1731 -0.4834 -0.0502
  104HFI     F6 1735   2.168   3.201   3.427 -0.1913  0.0251 -0.2538
  104HFI     H1 1736   2.187   2.822   3.259 -2.4624  3.1437  0.4489
  104HFI     H2 1737   2.206   2.972   3.479 -1.7980  0.4937  0.7434
  105HFI     O1 1738   3.091   1.304   3.779  0.5331  0.3288 -0.0673
  105HFI     C1 1739   3.071   1.417   3.692 -0.0629 -0.2659  0.4618
  105HFI     C2 1740   3.189   1.423   3.583 -0.1095  0.2380  1.2070
  105HFI     F1 1741   3.183   1.514   3.492 -0.0675 -0.0948 -0.1603
  105HFI     F2 1742   3.190   1.298   3.520 -0.5172 -0.0485  0.1358
  105HFI     F3 1743   3.309   1.440   3.646 -0.5148  0.3059 -0.1553
  105HFI     C3 1744   3.063   1.543   3.773 -0.0014 -0.1598 -0.3648
  105HFI     F4 1745   3.166   1.562   3.852  0.2897 -0.2915 -0.0596
  105HFI     F5 1746   2.955   1.541   3.854 -0.5743 -0.2093 -0.2033
  105HFI     F6 1747   3.050   1.645   3.690  0.5539  0.0290  0.2013
  105HFI     H1 1748   3.155   1.324   3.850 -0.6290  2.0566  0.5217
  105HFI     H2 1749   2.972   1.392   3.651  0.2409  0.4882 -0.7705
  106HFI     O1 1750   1.829   1.427   1.389  0.0929  0.1804 -0.2425
  106HFI     C1 1751   1.735   1.349   1.471  0.3761  0.1086 -0.4040
  106HFI     C2 1752   1.797   1.215   1.520  0.5272  0.0996  0.3994
  106HFI     F1 1753   1.728   1.151   1.613  0.3498 -0.1171  0.5555
  106HFI     F2 1754   1.920   1.238   1.578  0.3029  0.7510  0.3150
  106HFI     F3 1755   1.815   1.138   1.409  0.2443 -0.3028  0.5949
  106HFI     C3 1756   1.608   1.322   1.389 -0.6456  0.5269  0.3030
  106HFI     F4 1757   1.527   1.224   1.430 -0.1088 -0.1641  0.4596
  106HFI     F5 1758   1.641   1.305   1.260 -0.0544  0.2163 -0.1183
  106HFI     F6 1759   1.532   1.430   1.390 -1.0075 -0.1269  0.0107
  106HFI     H1 1760   1.909   1.378   1.364 -0.3332 -0.3615 -0.5310
  106HFI     H2 1761   1.700   1.398   1.563 -0.6606 -1.9109  0.3092
  107HFI     O1 1762   2.378   2.012   1.264  0.4710 -0.4769 -0.4772
  107HFI     C1 1763   2.359   2.109   1.374 -0.2103 -0.2986 -0.1403
  107HFI     C2 1764   2.299   2.047   1.492  0.2732 -0.3689  0.0333
  107HFI     F1 1765   2.374   1.950   1.546 -0.0436  0.1910 -0.0983
  107HFI     F2 1766   2.177   1.987   1.469  0.2051  0.0264 -0.4491
  107HFI     F3 1767   2.277   2.133   1.586  0.6455  0.0023 -0.0498
  107HFI     C3 1768   2.283   2.234   1.324  0.4068 -0.3591 -0.0210
  107HFI     F4 1769   2.241   2.318   1.427  0.0893  0.0820 -0.2588
  107HFI     F5 1770   2.178   2.198   1.249  0.1443  0.3837 -0.1240
  107HFI     F6 1771   2.374   2.300   1.255 -0.3801  0.0074 -0.0808
  107HFI     H1 1772   2.315   2.034   1.194 -1.9141  0.0390  1.7524
  107HFI     H2 1773   2.460   2.138   1.406 -0.0908  2.0664 -2.4493
  108HFI     O1 1774   1.676   2.487   1.318  0.2496 -0.4889  0.5706
  108HFI     C1 1775   1.778   2.441   1.416 -0.1754  0.4673 -0.4302
  108HFI     C2 1776   1.724   2.328   1.507  0.2930  0.9269 -0.0975
  108HFI     F1 1777   1.621   2.383   1.578  0.1314 -0.1194 -0.2201
  108HFI     F2 1778   1.823   2.274   1.584 -0.5439 -0.2573  0.1928
  108HFI     F3 1779   1.659   2.233   1.435  0.6822  0.2492 -0.1811
  108HFI     C3 1780   1.840   2.564   1.484  0.7485 -0.1380  0.3435
  108HFI     F4 1781   1.884   2.651   1.389 -0.4471  0.6394  0.2543
  108HFI     F5 1782   1.947   2.528   1.561  0.5526  0.1946 -0.4293
  108HFI     F6 1783   1.743   2.632   1.554 -0.2008  0.1895  0.7307
  108HFI     H1 1784   1.610   2.547   1.357 -0.9447 -1.0576 -0.5167
  108HFI     H2 1785   1.862   2.391   1.366 -0.8868 -0.0895 -1.0751
  109HFI     O1 1786   0.256   2.734   0.678  0.0795  0.2583  0.1123
  109HFI     C1 1787   0.264   2.874   0.637 -0.0854  0.0623  0.2762
  109HFI     C2 1788   0.297   2.902   0.481 -0.8348  0.5156  0.3165
  109HFI     F1 1789   0.274   2.795   0.408 -0.6911 -0.3739  0.1867
  109HFI     F2 1790   0.427   2.925   0.465 -0.0874 -0.4390  0.1268
  109HFI     F3 1791   0.232   3.005   0.425  0.0320 -0.4695  0.0470
  109HFI     C3 1792   0.355   2.960   0.731  0.3976 -0.0543  0.3171
  109HFI     F4 1793   0.391   3.081   0.675 -0.4839 -0.1854 -0.1818
  109HFI     F5 1794   0.468   2.895   0.757 -0.3111  0.0379  0.1218
  109HFI     F6 1795   0.304   2.988   0.854 -0.4067 -0.5016  0.3262
  109HFI     H1 1796   0.327   2.688   0.630  0.1223  2.2256 -1.7861
  109HFI     H2 1797   0.169   2.923   0.659  0.7086  0.5799  2.8039
  110HFI     O1 1798   2.068   0.381   0.482  0.0379  0.0008  0.0790
  110HFI     C1 1799   1.943   0.313   0.481 -0.2961 -0.1462  0.5007
  110HFI     C2 1800   1.859   0.353   0.603  0.0114 -0.4315 -0.9914
  110HFI     F1 1801   1.906   0.320   0.725  0.4055 -0.4755 -0.5423
  110HFI     F2 1802   1.735   0.303   0.598  0.4130 -0.0644 -0.4557
  110HFI     F3 1803   1.850   0.489   0.611  0.8156  0.3338  0.2085
  110HFI     C3 1804   1.958   0.160   0.471  0.7706  0.2990  0.0938
  110HFI     F4 1805   1.843   0.092   0.493  0.1615 -0.2022  1.0097
  110HFI     F5 1806   2.045   0.107   0.545 -0.3891 -0.0011 -0.5903
  110HFI     F6 1807   1.993   0.130   0.339 -0.1143 -0.2523 -0.1608
  110HFI     H1 1808   2.143   0.326   0.453  0.5314  0.9414 -0.4603
  110HFI     H2 1809   1.887   0.348   0.394 -0.7121  0.8510  1.1684
  111HFI     O1 1810   0.574   0.694   1.296 -0.1678 -0.4855  0.0426
  111HFI     C1 1811   0.446   0.625   1.324  0.8374  0.3233  0.3583
  111HFI     C2 1812   0.439   0.570   1.470  0.1558 -0.0750  0.0291
  111HFI     F1 1813   0.525   0.474   1.489 -0.0969 -0.2621  0.6186
  111HFI     F2 1814   0.316   0.523   1.498  0.1877 -0.0552 -0.5419
  111HFI     F3 1815   0.476   0.666   1.546  0.1771  0.1116  0.9305
  111HFI     C3 1816   0.417   0.511   1.217 -0.1623 -0.3040 -0.2321
  111HFI     F4 1817   0.419   0.572   1.092  0.4499  0.1448 -0.3182
  111HFI     F5 1818   0.297   0.440   1.230 -0.3719 -0.7370 -0.1910
  111HFI     F6 1819   0.515   0.419   1.215  0.3944 -0.0990  0.0350
  111HFI     H1 1820   0.588   0.691   1.199  2.5665 -1.7512  0.4355
  111HFI     H2 1821   0.356   0.686   1.315  0.2767 -0.8650 -2.7245
  112HFI     O1 1822   0.119   0.957   0.298 -0.0688 -0.0512  0.1894
  112HFI     C1 1823   0.251   0.983   0.353 -0.1639 -0.4062 -0.6501
  112HFI     C2 1824   0.321   0.845   0.372  0.4101 -0.0910  0.3959
  112HFI     F1 1825   0.275   0.768   0.472 -0.3621  0.1806 -0.3376
  112HFI     F2 1826   0.451   0.870   0.394 -0.2236 -0.0587  0.1866
  112HFI     F3 1827   0.313   0.765   0.262  0.7011  0.3806 -1.1993
  112HFI     C3 1828   0.240   1.073   0.484  0.1812  0.4834 -0.4227
  112HFI     F4 1829   0.171   1.009   0.581 -0.3244  0.0603 -0.7471
  112HFI     F5 1830   0.168   1.189   0.458  0.0484  0.1654  0.0397
  112HFI     F6 1831   0.360   1.105   0.542  0.2293  0.2247 -0.3042
  112HFI     H1 1832   0.066   0.923   0.372 -1.6358  0.0090 -0.8845
  112HFI     H2 1833   0.312   1.038   0.280  1.2347 -0.4333  0.4900
  113HFI     O1 1834   2.212   1.667   1.591  0.6616  0.4592  0.1261
  113HFI     C1 1835   2.299   1.612   1.480  0.7109 -0.2492  0.2855
  113HFI     C2 1836   2.206   1.601   1.357 -0.2236  0.2308 -0.1633
  113HFI     F1 1837   2.150   1.717   1.331  0.1914 -0.3824 -0.4372
  113HFI     F2 1838   2.104   1.514   1.378 -0.1966  0.3024 -0.1074
  113HFI     F3 1839   2.270   1.562   1.240  0.0698 -0.4433  0.1744
  113HFI     C3 1840   2.367   1.474   1.511 -0.0446  0.0342 -0.1941
  113HFI     F4 1841   2.286   1.396   1.575 -0.1665 -0.1098 -0.4665
  113HFI     F5 1842   2.472   1.488   1.594 -0.2999  0.0843 -0.0812
  113HFI     F6 1843   2.409   1.413   1.400 -0.4530 -0.1148  0.0827
  113HFI     H1 1844   2.153   1.735   1.554 -1.2943 -0.5545  1.3103
  113HFI     H2 1845   2.381   1.683   1.462  0.7070 -0.2354  0.3234
  114HFI     O1 1846   2.758   0.733   2.537 -0.2824  0.0628 -0.0293
  114HFI     C1 1847   2.822   0.740   2.408 -0.3906 -0.1509  0.0651
  114HFI     C2 1848   2.793   0.867   2.336  0.0569  0.0895 -0.7311
  114HFI     F1 1849   2.851   0.975   2.401 -0.8281  0.2166 -0.0806
  114HFI     F2 1850   2.657   0.898   2.332 -0.3527  0.3827  0.3396
  114HFI     F3 1851   2.852   0.864   2.211  0.4313 -0.4569  0.6281
  114HFI     C3 1852   2.790   0.618   2.321  0.2732  0.3342 -0.4572
  114HFI     F4 1853   2.669   0.617   2.267  0.2404 -0.5232 -0.3027
  114HFI     F5 1854   2.795   0.514   2.405 -0.4870  0.6519  0.1613
  114HFI     F6 1855   2.882   0.592   2.227  0.1319  0.0509  0.0124
  114HFI     H1 1856   2.712   0.650   2.557  0.3305 -0.5385 -1.0471
  114HFI     H2 1857   2.932   0.746   2.409 -0.4812  1.7301  0.4391
  115HFI     O1 1858   2.792   0.597   1.014  0.2459  0.4330  0.2103
  115HFI     C1 1859   2.855   0.473   0.956  0.4760 -0.9974 -0.1796
  115HFI     C2 1860   2.738   0.369   0.958  0.1735  0.1643  0.1190
  115HFI     F1 1861   2.701   0.334   1.086  0.2846  0.0122  0.3066
  115HFI     F2 1862   2.781   0.261   0.891 -0.1447 -0.3425  0.3506
  115HFI     F3 1863   2.625   0.418   0.895  0.1663 -0.4311  0.3669
  115HFI     C3 1864   2.989   0.442   1.020  0.1513 -0.2940 -0.1976
  115HFI     F4 1865   3.054   0.345   0.949  0.3763  0.1377 -0.5030
  115HFI     F5 1866   2.973   0.391   1.143  0.0584  0.6505  0.0814
  115HFI     F6 1867   3.074   0.553   1.019  0.2391  0.3335 -0.6403
  115HFI     H1 1868   2.765   0.561   1.100  0.8428 -0.7260 -0.0835
  115HFI     H2 1869   2.876   0.492   0.850  2.6729  2.8626  0.8685
  116HFI     O1 1870   2.423   0.738   0.401 -0.5891  0.3785 -0.2628
  116HFI     C1 1871   2.515   0.670   0.491 -0.0010 -0.0879  1.0266
  116HFI     C2 1872   2.435   0.555   0.574  0.3549  0.1011 -0.2160
  116HFI     F1 1873   2.509   0.473   0.649  0.0289 -0.2614 -0.2375
  116HFI     F2 1874   2.352   0.483   0.496 -0.2467  0.0276  0.4136
  116HFI     F3 1875   2.359   0.618   0.670  0.8182 -0.2160 -0.1235
  116HFI     C3 1876   2.588   0.774   0.580  0.1261 -0.3331  0.1721
  116HFI     F4 1877   2.507   0.866   0.631  0.5361  0.0912 -0.0415
  116HFI     F5 1878   2.683   0.838   0.511 -0.2323  0.5925  0.0742
  116HFI     F6 1879   2.647   0.709   0.682 -0.0781  0.1190  0.1322
  116HFI     H1 1880   2.434   0.690   0.318 -0.2672  1.6913 -0.9861
  116HFI     H2 1881   2.601   0.630   0.436 -0.7907 -0.0783 -0.2452
  117HFI     O1 1882   0.948   0.406   1.556  0.8676 -0.4056 -0.0502
  117HFI     C1 1883   1.027   0.477   1.459  0.0795  0.8907 -0.6082
  117HFI     C2 1884   1.164   0.414   1.458  0.3692 -0.0182  0.7818
  117HFI     F1 1885   1.243   0.468   1.359  0.8562 -0.2377 -0.0669
  117HFI     F2 1886   1.154   0.288   1.433 -0.4925 -0.2748  0.5147
  117HFI     F3 1887   1.227   0.433   1.577  0.3261  0.3343  0.0232
  117HFI     C3 1888   1.031   0.629   1.479  0.5486 -0.2418  0.1821
  117HFI     F4 1889   1.067   0.691   1.369  0.1275  0.1632  0.1267
  117HFI     F5 1890   1.124   0.669   1.570 -0.2084  0.5274  0.3482
  117HFI     F6 1891   0.907   0.672   1.526  0.2743  0.2595 -0.1456
  117HFI     H1 1892   0.903   0.462   1.620 -0.9571 -0.9097 -0.8473
  117HFI     H2 1893   0.987   0.463   1.358 -0.9612 -0.3243 -0.0492
  118HFI     O1 1894   1.346   0.551   2.425  0.3851 -0.3089  0.0845
  118HFI     C1 1895   1.488   0.594   2.417  0.3388  0.2997  0.4738
  118HFI     C2 1896   1.508   0.700   2.303  0.0007 -0.6293  0.0043
  118HFI     F1 1897   1.638   0.727   2.272  0.3031 -0.1952 -0.3094
  118HFI     F2 1898   1.454   0.816   2.335  0.6333  0.3839  0.3177
  118HFI     F3 1899   1.457   0.655   2.190 -0.1052 -0.0921  0.7006
  118HFI     C3 1900   1.576   0.462   2.409 -0.0309 -0.0519  0.5568
  118HFI     F4 1901   1.559   0.383   2.306  0.3819 -0.0749  0.3542
  118HFI     F5 1902   1.552   0.389   2.514  0.3524  0.3310  0.2335
  118HFI     F6 1903   1.707   0.483   2.403 -0.2030  0.1696 -0.8177
  118HFI     H1 1904   1.304   0.574   2.340  1.2599 -1.1442 -0.5806
  118HFI     H2 1905   1.519   0.648   2.507  1.9276  1.2264 -0.5909
  119HFI     O1 1906   1.342   3.078   0.737 -1.2757  0.5481 -0.3407
  119HFI     C1 1907   1.275   3.090   0.864  0.6771 -0.8220 -0.0551
  119HFI     C2 1908   1.323   3.215   0.934 -0.4392 -0.2304  0.4219
  119HFI     F1 1909   1.292   3.322   0.852  0.0695  0.0708 -0.5629
  119HFI     F2 1910   1.459   3.218   0.954  0.1704  0.1885  0.0430
  119HFI     F3 1911   1.264   3.238   1.054  0.1745 -0.0295 -0.3576
  119HFI     C3 1912   1.314   2.958   0.954 -0.5622 -0.4593 -0.5683
  119HFI     F4 1913   1.248   2.845   0.916  0.3431  0.2765 -0.5526
  119HFI     F5 1914   1.281   2.987   1.085  0.1638 -0.3136  0.1105
  119HFI     F6 1915   1.447   2.931   0.954 -0.0248  0.2700  0.3072
  119HFI     H1 1916   1.336   2.987   0.705 -0.3372  0.8955 -1.5269
  119HFI     H2 1917   1.166   3.096   0.858  0.5714  2.5634  3.1241
  120HFI     O1 1918   2.961   1.308   2.310 -0.1913 -0.1685 -0.2765
  120HFI     C1 1919   2.950   1.425   2.402  0.1716 -0.6379 -0.6917
  120HFI     C2 1920   2.965   1.553   2.318 -0.7985  0.8951 -0.4772
  120HFI     F1 1921   2.897   1.652   2.375 -0.1120 -0.2024 -0.3412
  120HFI     F2 1922   2.926   1.542   2.189 -0.1278  0.5176  0.0397
  120HFI     F3 1923   3.093   1.593   2.311  0.3715  0.1381  0.1718
  120HFI     C3 1924   3.043   1.423   2.529 -0.0767 -0.1569  0.7296
  120HFI     F4 1925   3.170   1.400   2.497  0.7200  0.4250 -0.3393
  120HFI     F5 1926   3.002   1.331   2.622 -0.0913  0.5121  0.1646
  120HFI     F6 1927   3.039   1.539   2.600 -0.1208  0.4907  0.5921
  120HFI     H1 1928   2.895   1.326   2.240  1.7624  0.5862 -1.9647
  120HFI     H2 1929   2.849   1.440   2.441  0.0092 -2.6262 -0.3024
  121HFI     O1 1930   0.981   1.762   2.479 -0.0327 -0.3259  0.2619
  121HFI     C1 1931   1.116   1.751   2.414  0.1240  0.5196  0.0397
  121HFI     C2 1932   1.116   1.740   2.256 -0.7238 -0.0703  0.1222
  121HFI     F1 1933   1.235   1.724   2.212 -0.2769  0.2567  0.3374
  121HFI     F2 1934   1.082   1.860   2.205  0.6260  0.3016 -0.3459
  121HFI     F3 1935   1.030   1.641   2.214 -0.5129  0.3143 -0.0125
  121HFI     C3 1936   1.203   1.645   2.471  0.2169  0.0235 -1.4179
  121HFI     F4 1937   1.182   1.522   2.413 -0.6913 -0.8231  0.4618
  121HFI     F5 1938   1.175   1.634   2.603  0.0177 -0.2882  0.7097
  121HFI     F6 1939   1.334   1.674   2.468  0.5398 -0.3655  0.5069
  121HFI     H1 1940   0.938   1.675   2.482 -2.2371  0.7246  4.9431
  121HFI     H2 1941   1.173   1.843   2.434  3.2874 -1.4838  0.6087
  122HFI     O1 1942   1.476   2.948   2.515  0.5132  0.7847 -0.3509
  122HFI     C1 1943   1.446   3.045   2.412 -0.3092  0.0323  0.2049
  122HFI     C2 1944   1.293   3.029   2.371  0.1450  0.4061 -0.1322
  122HFI     F1 1945   1.265   3.101   2.261  0.4497  0.1970 -0.5121
  122HFI     F2 1946   1.205   3.052   2.469 -0.2886 -0.1294  0.0320
  122HFI     F3 1947   1.267   2.901   2.343 -0.3215  0.1573  0.2520
  122HFI     C3 1948   1.543   3.059   2.299 -0.7192  0.4289 -0.1425
  122HFI     F4 1949   1.541   2.953   2.208 -0.4840  0.3072  0.3724
  122HFI     F5 1950   1.670   3.055   2.344 -0.8901 -0.1850  0.7036
  122HFI     F6 1951   1.529   3.183   2.244 -0.5367 -0.2435 -0.6413
  122HFI     H1 1952   1.465   2.862   2.472  1.3127  0.4007  0.1852
  122HFI     H2 1953   1.457   3.143   2.460  1.1678 -1.1142  2.2565
  123HFI     O1 1954   2.392   2.975   2.682 -0.6589  0.1270 -0.8504
  123HFI     C1 1955   2.393   2.864   2.783 -0.2056 -0.3420 -0.0093
  123HFI     C2 1956   2.403   2.728   2.707  0.5615  0.2647 -0.3401
  123HFI     F1 1957   2.285   2.684   2.641 -0.0619 -0.2638 -0.3681
  123HFI     F2 1958   2.447   2.634   2.791 -0.5068 -0.0322 -0.4744
  123HFI     F3 1959   2.501   2.727   2.617 -0.6610 -0.0991  0.5680
  123HFI     C3 1960   2.285   2.863   2.892 -0.3551  0.0029  0.6214
  123HFI     F4 1961   2.163   2.853   2.845  0.0999 -0.5491 -0.1034
  123HFI     F5 1962   2.299   2.974   2.962 -0.0788 -0.2356 -0.2453
  123HFI     F6 1963   2.304   2.764   2.979 -0.1197 -0.5780 -0.1451
  123HFI     H1 1964   2.342   2.938   2.607 -0.7461 -1.9785  0.1945
  123HFI     H2 1965   2.489   2.880   2.833  1.2366 -0.9969 -2.4687
  124HFI     O1 1966   1.612   1.435   0.930  0.4363 -0.0868  0.5424
  124HFI     C1 1967   1.580   1.529   1.032  0.1293  0.2602  0.3222
  124HFI     C2 1968   1.431   1.495   1.062 -1.0970  0.4868 -0.6543
  124HFI     F1 1969   1.342   1.530   0.963 -0.0195  0.2942  0.2060
  124HFI     F2 1970   1.393   1.566   1.179 -0.5687 -0.3456 -0.0619
  124HFI     F3 1971   1.414   1.363   1.087 -0.1532  0.0909 -0.1740
  124HFI     C3 1972   1.591   1.671   0.977 -0.3366  0.2285  0.5726
  124HFI     F4 1973   1.724   1.703   0.967  0.1955  0.0855  0.4278
  124HFI     F5 1974   1.544   1.765   1.064  0.2623 -0.0524 -0.3835
  124HFI     F6 1975   1.535   1.687   0.853 -0.1229  0.2081 -0.0086
  124HFI     H1 1976   1.600   1.348   0.970  1.5400 -0.5185 -0.0270
  124HFI     H2 1977   1.643   1.530   1.121 -0.3872  1.8227  0.6786
  125HFI     O1 1978   0.974   0.017   3.432 -0.1951  0.0431 -0.0443
  125HFI     C1 1979   1.082   0.094   3.379 -0.2400 -0.4005 -0.0501
  125HFI     C2 1980   1.052   0.134   3.231 -0.0220 -0.2670 -0.0898
  125HFI     F1 1981   0.933   0.199   3.219 -0.2138  0.1946  0.3882
  125HFI     F2 1982   1.047   0.030   3.146 -0.0235 -0.0948 -0.9500
  125HFI     F3 1983   1.149   0.220   3.180 -0.0212 -0.6050  0.7469
  125HFI     C3 1984   1.214   0.015   3.401  0.4317  0.8205 -0.6764
  125HFI     F4 1985   1.323   0.089   3.368 -0.1699  0.2737 -0.2084
  125HFI     F5 1986   1.218  -0.092   3.315 -0.3794  0.5431 -0.3104
  125HFI     F6 1987   1.235  -0.033   3.527  0.2509  0.4458  0.1237
  125HFI     H1 1988   0.991  -0.079   3.423  1.0497  0.4191 -2.0089
  125HFI     H2 1989   1.095   0.190   3.430  0.7088  0.5521 -2.0559
  126HFI     O1 1990   3.350   2.205   3.143 -0.0331 -0.2510 -0.0522
  126HFI     C1 1991   3.208   2.203   3.119  0.9537  0.1897 -0.0269
  126HFI     C2 1992   3.168   2.250   2.974 -0.3778  0.2729 -0.0160
  126HFI     F1 1993   3.048   2.200   2.929  0.2066  0.0949 -0.1522
  126HFI     F2 1994   3.262   2.197   2.885 -0.0765 -0.4711  0.0523
  126HFI     F3 1995   3.165   2.386   2.956 -0.3258 -0.1807 -0.0273
  126HFI     C3 1996   3.121   2.276   3.226  0.5950 -0.2442  0.1745
  126HFI     F4 1997   2.998   2.230   3.226  0.3013  0.5103  0.2618
  126HFI     F5 1998   3.117   2.415   3.213 -0.0927  0.8307  0.2044
  126HFI     F6 1999   3.164   2.253   3.350 -0.3465 -0.6772 -0.5979
  126HFI     H1 2000   3.393   2.175   3.061  1.9594  0.1389  0.8154
  126HFI     H2 2001   3.171   2.099   3.124 -0.9008  0.7345 -1.8068
  127HFI     O1 2002   2.500   0.816   3.452 -0.0918  0.7747 -0.0096
  127HFI     C1 2003   2.570   0.827   3.324 -0.0753 -0.3906 -0.1399
  127HFI     C2 2004   2.688   0.726   3.330  0.0949  0.4135  0.1906
  127HFI     F1 2005   2.753   0.716   3.214  0.4705  0.5891  0.2003
  127HFI     F2 2006   2.634   0.604   3.357 -0.6989  0.1792  0.5407
  127HFI     F3 2007   2.776   0.760   3.423  0.0912 -0.1525 -0.2601
  127HFI     C3 2008   2.621   0.973   3.296 -0.8016  0.0695 -0.1368
  127HFI     F4 2009   2.685   1.019   3.411  0.1322 -0.2379 -0.1605
  127HFI     F5 2010   2.518   1.053   3.265  0.0070  0.4512 -0.2389
  127HFI     F6 2011   2.699   0.972   3.194  0.0598 -0.3460  0.1145
  127HFI     H1 2012   2.562   0.852   3.517  1.2480 -0.3549 -0.6438
  127HFI     H2 2013   2.509   0.801   3.237  0.1325  1.4979 -0.8832
  128HFI     O1 2014   0.115   2.047   3.509 -0.1403 -0.0928 -0.2051
  128HFI     C1 2015   0.065   1.902   3.528 -0.3646 -0.0872  1.0139
  128HFI     C2 2016  -0.017   1.858   3.408 -0.4779 -0.9502  0.6807
  128HFI     F1 2017   0.051   1.884   3.286 -0.0458 -0.1013  0.6135
  128HFI     F2 2018  -0.133   1.923   3.406 -0.1849  0.1982 -0.1658
  128HFI     F3 2019  -0.032   1.728   3.411 -0.5121  0.1103  0.1708
  128HFI     C3 2020  -0.004   1.880   3.663 -0.3894 -0.3695 -0.7522
  128HFI     F4 2021  -0.077   1.765   3.672 -0.4821  0.4745 -0.0494
  128HFI     F5 2022  -0.091   1.975   3.691 -0.0593 -0.4295 -0.3531
  128HFI     F6 2023   0.086   1.875   3.758  0.2618 -0.2291  0.2202
  128HFI     H1 2024   0.055   2.103   3.456 -1.5346 -1.3539  0.0276
  128HFI     H2 2025   0.147   1.830   3.536 -0.1922 -0.2837 -1.9358
  129HFI     O1 2026   0.465   0.355   3.089 -0.1504 -0.1419 -0.9861
  129HFI     C1 2027   0.390   0.471   3.039 -0.8940  0.0816 -0.2950
  129HFI     C2 2028   0.303   0.543   3.139 -0.0140 -1.1711  0.2695
  129HFI     F1 2029   0.260   0.668   3.099  0.3595  0.3627  0.2435
  129HFI     F2 2030   0.358   0.555   3.263  0.6496  0.0700 -0.5675
  129HFI     F3 2031   0.193   0.476   3.160  0.4675  0.3160  0.2241
  129HFI     C3 2032   0.326   0.442   2.901  0.4950 -0.4359 -0.1058
  129HFI     F4 2033   0.274   0.322   2.895 -0.2115 -0.7367  0.3452
  129HFI     F5 2034   0.419   0.449   2.810  0.2776 -0.4689  0.1818
  129HFI     F6 2035   0.228   0.535   2.869  0.4121  0.7053  0.3185
  129HFI     H1 2036   0.432   0.271   3.052  2.0387 -2.1477  1.3370
  129HFI     H2 2037   0.465   0.544   3.007 -1.4894  1.1401  0.6853
  130HFI     O1 2038   2.084   2.385   2.413 -0.5508 -0.5570  0.4317
  130HFI     C1 2039   2.184   2.394   2.302  0.0884  0.1642 -0.8160
  130HFI     C2 2040   2.239   2.247   2.272 -0.1310 -1.1537  0.2304
  130HFI     F1 2041   2.277   2.181   2.388 -0.0974  0.0023 -0.0922
  130HFI     F2 2042   2.343   2.241   2.193 -0.1262 -0.2268 -0.2321
  130HFI     F3 2043   2.138   2.173   2.225 -0.0815  0.6329  0.3050
  130HFI     C3 2044   2.287   2.502   2.341 -0.4895  0.1042  0.2849
  130HFI     F4 2045   2.382   2.522   2.245 -0.1471  0.1106 -0.1805
  130HFI     F5 2046   2.348   2.464   2.458 -0.1970  0.3470  0.0596
  130HFI     F6 2047   2.222   2.617   2.356 -0.0316 -0.2854 -0.5347
  130HFI     H1 2048   2.000   2.367   2.368  1.4501 -1.4206 -3.0684
  130HFI     H2 2049   2.130   2.430   2.213  2.0893  2.2057 -1.2621
  131HFI     O1 2050   2.849   2.002   0.968  0.0930 -0.5294  0.2129
  131HFI     C1 2051   2.810   2.146   0.982 -0.3438  0.7023 -0.3552
  131HFI     C2 2052   2.910   2.244   0.916 -0.0960 -0.2094  0.1548
  131HFI     F1 2053   2.838   2.340   0.853 -0.1612 -0.1373 -0.6289
  131HFI     F2 2054   2.975   2.182   0.820  0.3519 -0.1300  0.1151
  131HFI     F3 2055   3.005   2.301   1.005 -0.0983  0.0016 -0.5311
  131HFI     C3 2056   2.777   2.170   1.130 -0.4777 -0.0780  0.4329
  131HFI     F4 2057   2.883   2.152   1.212 -0.1813 -0.1257 -0.3202
  131HFI     F5 2058   2.681   2.097   1.175  0.0073 -0.1767  0.1812
  131HFI     F6 2059   2.742   2.298   1.154  0.0473 -0.3516  0.3853
  131HFI     H1 2060   2.791   1.950   1.026 -1.5564  1.3233  0.2919
  131HFI     H2 2061   2.717   2.169   0.928 -0.7486  2.1225  0.9293
  132HFI     O1 2062   1.064   1.512   0.475 -0.3484  0.1558 -0.2947
  132HFI     C1 2063   1.203   1.530   0.436 -0.2443  0.1656 -0.1602
  132HFI     C2 2064   1.292   1.548   0.560  0.9723  0.2447 -0.0209
  132HFI     F1 2065   1.260   1.663   0.626 -0.1260  0.2496 -0.3679
  132HFI     F2 2066   1.426   1.556   0.537  0.1219 -0.5160 -0.2142
  132HFI     F3 2067   1.278   1.451   0.653 -0.0284 -0.0098 -0.2976
  132HFI     C3 2068   1.224   1.653   0.344 -0.5045 -0.0782  0.8682
  132HFI     F4 2069   1.183   1.763   0.403  0.6311  0.0172  0.4704
  132HFI     F5 2070   1.155   1.646   0.225  0.1974  0.4390  0.0654
  132HFI     F6 2071   1.360   1.657   0.306 -0.2514  0.2534 -0.0892
  132HFI     H1 2072   1.027   1.601   0.472  0.3231  0.4679  0.5013
  132HFI     H2 2073   1.235   1.443   0.379  0.7547  0.5899 -0.2499
  133HFI     O1 2074   2.585   2.280   2.384 -0.2542  0.4517  0.2554
  133HFI     C1 2075   2.694   2.345   2.305  0.4685  0.1316 -0.0129
  133HFI     C2 2076   2.812   2.244   2.283  0.3814  0.6874 -0.5189
  133HFI     F1 2077   2.775   2.131   2.221 -0.2047 -0.6913  0.4157
  133HFI     F2 2078   2.874   2.207   2.406  0.2092 -0.2679 -0.3203
  133HFI     F3 2079   2.910   2.303   2.211  0.2243  0.0833 -0.0493
  133HFI     C3 2080   2.740   2.475   2.371 -0.4673  0.0987  0.6795
  133HFI     F4 2081   2.814   2.551   2.291 -0.1994  0.5113  0.3417
  133HFI     F5 2082   2.803   2.452   2.478  0.2570 -0.5761 -0.0808
  133HFI     F6 2083   2.630   2.552   2.400 -0.5706 -0.0074 -0.3917
  133HFI     H1 2084   2.542   2.357   2.425  1.9263  0.2134  3.1629
  133HFI     H2 2085   2.664   2.372   2.203  0.0368 -0.9628 -0.1926
  134HFI     O1 2086   1.464   2.233   1.125 -0.0087  0.1412  0.0811
  134HFI     C1 2087   1.431   2.306   0.999 -0.4483  0.3859 -0.0204
  134HFI     C2 2088   1.444   2.454   1.013  0.1409  0.4532  0.1065
  134HFI     F1 2089   1.375   2.499   1.120 -0.0685 -0.2567 -0.5179
  134HFI     F2 2090   1.389   2.515   0.900 -1.0831 -0.2572  0.2123
  134HFI     F3 2091   1.570   2.490   1.021 -0.0758  0.3998 -0.2543
  134HFI     C3 2092   1.289   2.253   0.954 -0.1492 -0.2669  0.2669
  134HFI     F4 2093   1.267   2.126   0.983 -0.1922  0.4882  0.3103
  134HFI     F5 2094   1.285   2.267   0.819  0.1692 -0.3602  0.5459
  134HFI     F6 2095   1.192   2.326   1.011  0.6336 -0.1147 -0.0055
  134HFI     H1 2096   1.397   2.163   1.134  0.6439 -0.5672 -0.5623
  134HFI     H2 2097   1.499   2.279   0.917  0.7349  2.2818  0.2983
  135HFI     O1 2098   1.144   0.854   2.498  1.0760 -0.4373  0.2983
  135HFI     C1 2099   1.014   0.810   2.449 -0.2942 -0.1714 -0.0048
  135HFI     C2 2100   0.962   0.693   2.535 -0.4135 -0.1098 -0.5286
  135HFI     F1 2101   0.836   0.666   2.519  0.2779 -0.8204 -0.1036
  135HFI     F2 2102   0.969   0.713   2.667 -0.1017  0.2169  0.1073
  135HFI     F3 2103   1.025   0.581   2.509  0.3692  0.4961 -0.2733
  135HFI     C3 2104   1.017   0.781   2.295 -0.3445 -0.1127  0.5829
  135HFI     F4 2105   1.047   0.894   2.230  0.2358 -0.0524 -0.0308
  135HFI     F5 2106   0.905   0.727   2.249 -0.2618  0.0315  0.4482
  135HFI     F6 2107   1.116   0.690   2.266  0.7327  0.4261  0.1009
  135HFI     H1 2108   1.186   0.917   2.437  0.6726  0.4694  0.9268
  135HFI     H2 2109   0.947   0.895   2.466  3.1138  2.3084  1.5359
  136HFI     O1 2110   1.652   0.393   3.002 -0.0723  0.0039  0.2621
  136HFI     C1 2111   1.675   0.447   2.867  0.2885  0.0860  0.0850
  136HFI     C2 2112   1.826   0.433   2.804 -0.3683  0.6510  0.4981
  136HFI     F1 2113   1.830   0.489   2.679  0.1827  0.1987  0.5722
  136HFI     F2 2114   1.870   0.302   2.784 -0.2929 -0.2496  0.2200
  136HFI     F3 2115   1.919   0.489   2.877  0.6291  0.4728  0.4665
  136HFI     C3 2116   1.619   0.593   2.859 -0.4300  0.1940  0.2750
  136HFI     F4 2117   1.694   0.679   2.935 -0.3185  0.0389 -0.4455
  136HFI     F5 2118   1.488   0.597   2.899  0.2719 -0.6417  0.3099
  136HFI     F6 2119   1.621   0.639   2.734 -0.1316  0.1845  0.1526
  136HFI     H1 2120   1.647   0.297   2.990  0.1983  0.0136  0.0617
  136HFI     H2 2121   1.614   0.389   2.796  1.6053  0.4803 -1.3871
  137HFI     O1 2122   2.362   0.154   2.531  0.0997  0.7561  0.1539
  137HFI     C1 2123   2.468   0.104   2.435 -0.6297 -0.0877 -0.2905
  137HFI     C2 2124   2.578   0.200   2.412 -0.2282  0.0632 -0.2887
  137HFI     F1 2125   2.532   0.316   2.349  0.6787  0.5115 -0.1646
  137HFI     F2 2126   2.681   0.144   2.344 -0.2105  0.4884  0.3287
  137HFI     F3 2127   2.626   0.239   2.535 -0.1373 -0.1355  0.3752
  137HFI     C3 2128   2.403   0.045   2.309 -0.7398  0.4945  0.7224
  137HFI     F4 2129   2.329   0.138   2.245  0.2528  0.2805  0.1857
  137HFI     F5 2130   2.314  -0.049   2.350 -0.0519  0.0431  0.2067
  137HFI     F6 2131   2.489  -0.013   2.220 -0.0369  0.0848 -0.4007
  137HFI     H1 2132   2.313   0.225   2.485  1.0135 -0.2163 -2.3884
  137HFI     H2 2133   2.517   0.017   2.481 -0.7782  0.6316  1.2688
  138HFI     O1 2134   1.283   0.164   2.511 -0.2982  0.4778 -0.5908
  138HFI     C1 2135   1.235   0.128   2.380 -0.1603 -0.0512  0.6853
  138HFI     C2 2136   1.316   0.015   2.318 -0.1726  0.2119 -0.5801
  138HFI     F1 2137   1.255  -0.027   2.202  0.3094 -0.0481 -0.5640
  138HFI     F2 2138   1.319  -0.086   2.405 -0.1386 -0.1589 -0.3440
  138HFI     F3 2139   1.445   0.049   2.295 -0.0581  0.4850 -0.2503
  138HFI     C3 2140   1.209   0.252   2.289  0.4914 -0.2320 -0.2516
  138HFI     F4 2141   1.127   0.221   2.190 -0.2737 -0.1280 -0.2130
  138HFI     F5 2142   1.318   0.309   2.241 -0.5236 -0.0979  0.0760
  138HFI     F6 2143   1.144   0.349   2.355 -0.0073  0.1121 -0.1480
  138HFI     H1 2144   1.241   0.242   2.552  1.5070  1.3377 -0.3380
  138HFI     H2 2145   1.139   0.081   2.407 -0.5780  0.0650 -0.5575
  139HFI     O1 2146   0.583   0.273   3.371 -0.2617 -0.0008  0.4307
  139HFI     C1 2147   0.649   0.190   3.477 -0.2173  0.2317  0.0742
  139HFI     C2 2148   0.622   0.039   3.458 -0.4963  0.5896  0.7306
  139HFI     F1 2149   0.490   0.025   3.460  0.0394  0.6389  0.2956
  139HFI     F2 2150   0.674  -0.039   3.554 -0.5632  0.0323 -0.2915
  139HFI     F3 2151   0.668  -0.000   3.341 -0.3896  0.3281  0.0317
  139HFI     C3 2152   0.607   0.244   3.619 -0.1091 -0.4851  0.7330
  139HFI     F4 2153   0.483   0.203   3.645 -0.1260  0.7233 -0.4220
  139HFI     F5 2154   0.602   0.375   3.623  0.1842  0.1979  0.5005
  139HFI     F6 2155   0.693   0.195   3.711 -0.4951  0.3134 -1.0391
  139HFI     H1 2156   0.499   0.227   3.355  0.1066 -0.3518 -0.4919
  139HFI     H2 2157   0.757   0.187   3.460 -0.7205 -0.1120 -3.3565
  140HFI     O1 2158   2.737   1.532   0.868  0.5214  0.2358 -0.4633
  140HFI     C1 2159   2.622   1.592   0.818 -0.1869  0.8005  0.1882
  140HFI     C2 2160   2.629   1.746   0.819  0.0187 -0.2283  0.5416
  140HFI     F1 2161   2.611   1.794   0.946  0.8680 -0.3455 -0.1073
  140HFI     F2 2162   2.535   1.805   0.745  0.3965 -0.2871 -0.6755
  140HFI     F3 2163   2.739   1.798   0.772 -0.4179 -0.1922  0.4673
  140HFI     C3 2164   2.503   1.540   0.899 -0.1472 -0.4456  0.3220
  140HFI     F4 2165   2.502   1.405   0.886 -0.0607 -0.8896  0.4183
  140HFI     F5 2166   2.390   1.589   0.841 -0.1866  0.0393  0.0409
  140HFI     F6 2167   2.500   1.572   1.032  0.0704 -0.3784  0.4318
  140HFI     H1 2168   2.817   1.539   0.813  0.3746 -0.7128 -0.8170
  140HFI     H2 2169   2.607   1.572   0.711  1.7740  1.3837 -0.2048
  141HFI     O1 2170   1.303   0.425   3.440  1.0447 -0.5397 -0.4407
  141HFI     C1 2171   1.399   0.501   3.369 -0.2413 -0.0455 -0.1248
  141HFI     C2 2172   1.491   0.582   3.468 -0.6370  0.7085 -0.6608
  141HFI     F1 2173   1.586   0.657   3.411  0.1010 -0.1105  0.3457
  141HFI     F2 2174   1.560   0.495   3.546  0.1501 -0.1883  0.2312
  141HFI     F3 2175   1.423   0.670   3.545  0.0122  0.4574 -0.1601
  141HFI     C3 2176   1.332   0.603   3.271  0.4691 -0.1779  0.1984
  141HFI     F4 2177   1.255   0.701   3.333 -0.2902  0.2177  0.1021
  141HFI     F5 2178   1.248   0.542   3.183  0.3676 -0.0302 -0.1541
  141HFI     F6 2179   1.432   0.665   3.203 -0.2703  0.7011  0.1321
  141HFI     H1 2180   1.232   0.478   3.479  2.8170  0.6110  1.3426
  141HFI     H2 2181   1.465   0.438   3.308  0.3568 -0.2753  0.7591
  142HFI     O1 2182   1.124   2.063   3.456 -0.8417 -0.1701  0.5901
  142HFI     C1 2183   1.214   2.074   3.336  0.2938  0.4667  0.0648
  142HFI     C2 2184   1.226   2.218   3.281  0.4489  0.1143 -0.3088
  142HFI     F1 2185   1.225   2.317   3.370  0.3352  0.9438  0.3084
  142HFI     F2 2186   1.125   2.240   3.192 -0.1309  0.6410  0.0587
  142HFI     F3 2187   1.346   2.230   3.215  0.6224  0.2069  0.5911
  142HFI     C3 2188   1.173   1.965   3.228  0.0341 -0.0558 -0.2703
  142HFI     F4 2189   1.213   1.841   3.266 -0.6428  0.4289  0.4599
  142HFI     F5 2190   1.231   1.992   3.111  0.2570  0.2757 -0.3101
  142HFI     F6 2191   1.030   1.956   3.207 -0.2762  0.7245  0.0763
  142HFI     H1 2192   1.095   2.155   3.472 -0.5309 -0.2560  1.6552
  142HFI     H2 2193   1.316   2.053   3.369 -0.5090 -0.8071  1.7973
  143HFI     O1 2194   1.349   0.782   2.683 -0.1240  0.4012  0.0316
  143HFI     C1 2195   1.341   0.858   2.810  0.3540  0.5026  0.0648
  143HFI     C2 2196   1.201   0.834   2.880 -0.7031 -0.0903  0.0630
  143HFI     F1 2197   1.195   0.865   3.014 -0.3448 -0.1202  0.2716
  143HFI     F2 2198   1.170   0.704   2.871 -0.3801 -0.2362  0.0228
  143HFI     F3 2199   1.098   0.910   2.823  0.2354 -0.2090 -0.2227
  143HFI     C3 2200   1.378   1.011   2.788 -0.1114  0.5450  0.2150
  143HFI     F4 2201   1.299   1.080   2.707  0.0488  0.6592 -0.1661
  143HFI     F5 2202   1.505   1.017   2.750 -0.1308 -0.1350 -0.8576
  143HFI     F6 2203   1.361   1.066   2.912  0.2264 -0.4601 -0.0601
  143HFI     H1 2204   1.296   0.827   2.614  0.1271 -0.1767 -0.5443
  143HFI     H2 2205   1.424   0.828   2.876  1.7908 -2.0569 -2.7978
  144HFI     O1 2206   0.557   0.739   3.555  0.5730 -0.9363  0.2651
  144HFI     C1 2207   0.546   0.679   3.690 -0.1140 -0.6533 -0.0398
  144HFI     C2 2208   0.413   0.604   3.716 -0.0686  0.4636 -0.0171
  144HFI     F1 2209   0.367   0.544   3.607 -0.1094  0.2247 -0.6644
  144HFI     F2 2210   0.311   0.683   3.752  0.2058  0.3746  0.6937
  144HFI     F3 2211   0.433   0.515   3.815  0.7408  0.1726 -0.0834
  144HFI     C3 2212   0.574   0.791   3.800 -0.1369  0.1515 -0.3684
  144HFI     F4 2213   0.503   0.901   3.778 -0.1716 -0.1435  0.1105
  144HFI     F5 2214   0.700   0.831   3.811 -0.2999 -0.0768 -0.1865
  144HFI     F6 2215   0.542   0.743   3.924 -0.1852  0.3543 -0.3785
  144HFI     H1 2216   0.469   0.756   3.517  0.6059 -2.6335 -0.5774
  144HFI     H2 2217   0.628   0.609   3.709 -0.5049 -1.4598 -1.2528
  145HFI     O1 2218   1.744   0.890   0.015 -0.4325  0.8242  0.0330
  145HFI     C1 2219   1.736   0.785  -0.086 -0.4157  0.0279 -0.6474
  145HFI     C2 2220   1.748   0.642  -0.025  0.2104  0.2062  0.8930
  145HFI     F1 2221   1.626   0.613   0.034 -0.3625  0.0828  0.1757
  145HFI     F2 2222   1.850   0.643   0.055 -0.1850 -0.0787  0.1843
  145HFI     F3 2223   1.773   0.550  -0.119 -0.4062 -0.4298  0.0380
  145HFI     C3 2224   1.848   0.816  -0.199  0.9330  0.7193  0.8118
  145HFI     F4 2225   1.817   0.941  -0.255  0.0529  0.2238 -0.2675
  145HFI     F5 2226   1.846   0.725  -0.298 -0.7811 -0.1632 -0.1855
  145HFI     F6 2227   1.968   0.823  -0.139 -0.1426 -0.1499  0.7249
  145HFI     H1 2228   1.834   0.882   0.051 -1.4916  1.5219  2.9746
  145HFI     H2 2229   1.640   0.794  -0.138  0.3999  1.5334 -1.9436
  146HFI     O1 2230   1.143   1.521   3.184  0.2640  0.6616  0.2583
  146HFI     C1 2231   1.140   1.441   3.063  0.4547 -0.2266  0.6829
  146HFI     C2 2232   1.125   1.289   3.093  0.0418 -0.5936 -0.2260
  146HFI     F1 2233   1.106   1.223   2.969 -1.0388  0.1534  0.0609
  146HFI     F2 2234   1.011   1.266   3.166  0.1561 -0.2239  0.5065
  146HFI     F3 2235   1.237   1.240   3.148 -0.2908  0.0009 -0.0630
  146HFI     C3 2236   1.255   1.487   2.974  0.5510  0.3105  0.4104
  146HFI     F4 2237   1.250   1.619   2.949 -0.6614 -0.2150  0.0983
  146HFI     F5 2238   1.251   1.418   2.855 -0.3330  0.8130  0.1838
  146HFI     F6 2239   1.379   1.459   3.030 -0.1615 -0.8182 -0.6014
  146HFI     H1 2240   1.232   1.557   3.199  1.0046 -0.7543 -0.5809
  146HFI     H2 2241   1.053   1.465   3.002  1.8215 -0.2755 -1.3521
  147HFI     O1 2242   2.599   3.348   2.714 -0.0221  0.1560  0.6584
  147HFI     C1 2243   2.718   3.356   2.796 -0.4424 -0.2567  0.2267
  147HFI     C2 2244   2.756   3.218   2.853 -0.2610  0.1061 -0.6808
  147HFI     F1 2245   2.796   3.141   2.752  0.5489  0.4235  0.1221
  147HFI     F2 2246   2.647   3.162   2.918 -0.2691 -0.2404 -0.8675
  147HFI     F3 2247   2.863   3.221   2.940  0.5085  0.0383 -0.4736
  147HFI     C3 2248   2.720   3.474   2.898 -0.0555  0.0497 -0.3152
  147HFI     F4 2249   2.645   3.576   2.846 -0.1950 -0.2431 -0.4665
  147HFI     F5 2250   2.848   3.520   2.919  0.1849  0.2251 -0.0706
  147HFI     F6 2251   2.673   3.436   3.022  0.1633 -0.1154 -0.6969
  147HFI     H1 2252   2.524   3.323   2.772  0.2313 -1.4790  0.3057
  147HFI     H2 2253   2.807   3.382   2.738 -0.8465  1.4549  0.3511
  148HFI     O1 2254   0.260   2.638   3.220 -0.2762 -1.0429  0.6463
  148HFI     C1 2255   0.190   2.542   3.304  0.3533  0.2581  0.8087
  148HFI     C2 2256   0.240   2.400   3.258 -0.1116  0.0006  0.3436
  148HFI     F1 2257   0.206   2.373   3.123 -0.4827 -0.6308  0.1781
  148HFI     F2 2258   0.183   2.297   3.324  0.2801  0.7040 -0.3794
  148HFI     F3 2259   0.377   2.395   3.271 -0.2475  0.3505 -0.2201
  148HFI     C3 2260   0.038   2.561   3.308  0.6301  0.6143 -0.4949
  148HFI     F4 2261  -0.005   2.689   3.340 -0.4892  0.1714 -0.1649
  148HFI     F5 2262  -0.020   2.476   3.397 -0.2584 -0.0888  0.2503
  148HFI     F6 2263  -0.014   2.526   3.191  0.1325 -0.0833 -0.0715
  148HFI     H1 2264   0.316   2.592   3.155  0.7047 -1.1223  1.5481
  148HFI     H2 2265   0.232   2.555   3.404  2.6996  1.4012 -0.2889
  149HFI     O1 2266   2.148   0.918   0.421 -0.2777 -0.1773 -0.2279
  149HFI     C1 2267   2.039   0.902   0.517 -0.4728 -0.5065 -0.3672
  149HFI     C2 2268   2.081   0.855   0.657 -0.6722  0.1936 -0.4387
  149HFI     F1 2269   2.084   0.720   0.665  0.0070  0.2608  0.3965
  149HFI     F2 2270   1.998   0.901   0.754 -0.0518 -0.3593 -0.0473
  149HFI     F3 2271   2.206   0.904   0.693  0.2472  0.1419 -0.5574
  149HFI     C3 2272   1.936   0.795   0.453 -0.3359 -0.0965 -0.1556
  149HFI     F4 2273   1.882   0.861   0.349  0.3200 -0.0612  0.0796
  149HFI     F5 2274   1.829   0.763   0.537  0.4307 -0.1906 -0.2296
  149HFI     F6 2275   1.995   0.683   0.410  0.1608 -0.3197 -0.0747
  149HFI     H1 2276   2.204   0.840   0.436  2.2057  1.7259  0.5727
  149HFI     H2 2277   1.991   1.000   0.534  0.5198 -0.1238  0.2687
  150HFI     O1 2278   0.714   0.241   2.520 -0.2172  0.9417  0.4438
  150HFI     C1 2279   0.747   0.321   2.395 -0.0390 -0.1529 -0.7176
  150HFI     C2 2280   0.641   0.432   2.364  0.2692  0.3391 -0.0343
  150HFI     F1 2281   0.688   0.524   2.274  0.1816 -0.2219 -0.0517
  150HFI     F2 2282   0.610   0.507   2.473 -0.1054  0.3332  0.0994
  150HFI     F3 2283   0.524   0.386   2.311 -0.0296 -0.2275  0.1040
  150HFI     C3 2284   0.794   0.229   2.288  0.5192 -0.6341 -0.7663
  150HFI     F4 2285   0.897   0.151   2.333  0.1493  0.7064  0.1684
  150HFI     F5 2286   0.852   0.309   2.185 -0.2745 -0.5144 -0.3345
  150HFI     F6 2287   0.697   0.148   2.233  0.5281  0.1981  0.3962
  150HFI     H1 2288   0.740   0.293   2.598 -0.2672  2.3300 -0.4545
  150HFI     H2 2289   0.838   0.377   2.416 -1.4851  0.9720  3.0082
  151HFI     O1 2290   1.451   1.895   0.544 -0.8513  0.5039  0.3886
  151HFI     C1 2291   1.584   1.949   0.554  0.5619  0.1243 -0.7523
  151HFI     C2 2292   1.582   2.107   0.547 -0.5315 -0.1725 -0.4005
  151HFI     F1 2293   1.557   2.156   0.421  0.2075 -0.4107 -0.0305
  151HFI     F2 2294   1.709   2.151   0.580 -0.1139 -0.0478 -0.2294
  151HFI     F3 2295   1.488   2.161   0.631  0.0440  0.5797 -0.2103
  151HFI     C3 2296   1.674   1.876   0.459 -0.0630  0.7253  0.0799
  151HFI     F4 2297   1.807   1.889   0.487  0.0527 -0.0385  0.1105
  151HFI     F5 2298   1.670   1.931   0.338  0.2953 -0.1602 -0.0559
  151HFI     F6 2299   1.644   1.742   0.444  0.1973  0.1852  0.0462
  151HFI     H1 2300   1.457   1.799   0.533  0.4775  0.5413  0.6913
  151HFI     H2 2301   1.619   1.920   0.654 -1.6586 -1.5676 -0.4417
  152HFI     O1 2302   0.016   1.381   2.780  1.0247  0.7995 -0.3242
  152HFI     C1 2303   0.065   1.248   2.760  0.2593  0.4717 -0.3706
  152HFI     C2 2304  -0.040   1.144   2.754 -0.6960 -0.0238  0.0045
  152HFI     F1 2305  -0.083   1.117   2.880 -0.1926 -0.0227 -0.2408
  152HFI     F2 2306   0.000   1.032   2.689  0.1875 -0.0836 -0.1140
  152HFI     F3 2307  -0.149   1.196   2.681  0.2814  0.3439 -0.2769
  152HFI     C3 2308   0.192   1.216   2.847  0.3749 -0.5627 -0.6449
  152HFI     F4 2309   0.163   1.218   2.980 -0.3984  0.5874  0.2227
  152HFI     F5 2310   0.286   1.310   2.821 -0.1531 -0.0332 -0.4287
  152HFI     F6 2311   0.251   1.095   2.820 -0.5186 -0.0285 -0.1082
  152HFI     H1 2312  -0.076   1.388   2.750  1.1485 -1.7717 -1.4182
  152HFI     H2 2313   0.110   1.247   2.660  0.2042 -0.8994 -0.3839
  153HFI     O1 2314   2.338   0.025   3.409  0.0385  0.0076  0.2089
  153HFI     C1 2315   2.478   0.036   3.371  0.8107  0.0883  0.0423
  153HFI     C2 2316   2.575   0.056   3.497  0.5056 -0.5074  0.1221
  153HFI     F1 2317   2.564  -0.053   3.569  0.0277 -0.2925  0.3899
  153HFI     F2 2318   2.546   0.163   3.573 -0.5828  0.0893 -0.7077
  153HFI     F3 2319   2.708   0.052   3.460 -0.1080 -0.1346 -0.2935
  153HFI     C3 2320   2.489   0.164   3.274  0.0147 -0.5032  0.0870
  153HFI     F4 2321   2.398   0.165   3.177 -0.3324  0.2373 -0.7084
  153HFI     F5 2322   2.612   0.167   3.212  0.1995  0.2061  0.6486
  153HFI     F6 2323   2.473   0.278   3.343  0.6143 -0.0876 -0.3830
  153HFI     H1 2324   2.300   0.112   3.392 -2.1182 -1.0086 -0.3119
  153HFI     H2 2325   2.512  -0.061   3.333  0.6215 -0.7265  1.8739
  154HFI     O1 2326   2.797   3.410   1.118  0.1808  0.0836  0.0570
  154HFI     C1 2327   2.859   3.304   1.038  0.1121  0.7800  0.5543
  154HFI     C2 2328   2.993   3.258   1.104 -0.0083 -0.3885  0.0241
  154HFI     F1 2329   2.987   3.247   1.239  0.9995 -0.1079 -0.0693
  154HFI     F2 2330   3.095   3.348   1.074 -0.0326  0.3464  0.0129
  154HFI     F3 2331   3.026   3.137   1.051 -0.6363 -0.2161  0.5233
  154HFI     C3 2332   2.872   3.350   0.895 -0.2731  0.0899 -0.4086
  154HFI     F4 2333   2.962   3.450   0.867  0.2566 -0.0714  0.3019
  154HFI     F5 2334   2.751   3.384   0.845 -0.1259 -0.0120 -0.7934
  154HFI     F6 2335   2.911   3.247   0.819  0.7867  0.6781  0.5096
  154HFI     H1 2336   2.708   3.428   1.082  0.4946 -0.9607 -1.2833
  154HFI     H2 2337   2.780   3.229   1.028  0.0345  0.3999  3.5316
  155HFI     O1 2338   1.705   0.238   3.651 -0.8090  0.4244  0.1308
  155HFI     C1 2339   1.648   0.227   3.792  0.7193 -0.2460 -0.4284
  155HFI     C2 2340   1.751   0.168   3.887 -0.5294 -0.1643  0.5238
  155HFI     F1 2341   1.809   0.058   3.836 -0.0776 -0.2250 -0.2492
  155HFI     F2 2342   1.701   0.134   4.004 -0.2344 -0.1456 -0.1081
  155HFI     F3 2343   1.842   0.258   3.918  0.0788  0.2527  0.3120
  155HFI     C3 2344   1.523   0.152   3.808 -0.8774 -0.2113  0.6720
  155HFI     F4 2345   1.536   0.014   3.800 -0.0570 -0.5610  0.1794
  155HFI     F5 2346   1.436   0.177   3.700 -0.7192  0.0627  0.0438
  155HFI     F6 2347   1.452   0.180   3.921 -0.3588 -0.2631 -0.0407
  155HFI     H1 2348   1.650   0.303   3.604  1.5568  1.9833 -0.5715
  155HFI     H2 2349   1.633   0.328   3.833 -1.7061 -0.3361 -1.0314
  156HFI     O1 2350   1.278   3.190   3.711 -0.4056  0.0607 -0.1577
  156HFI     C1 2351   1.186   3.182   3.831  0.0008  0.5947  0.3037
  156HFI     C2 2352   1.062   3.274   3.800  0.3151  0.1614 -0.2169
  156HFI     F1 2353   1.006   3.237   3.680 -0.2558  0.3405 -0.0581
  156HFI     F2 2354   1.102   3.402   3.790 -0.1958 -0.0955  0.2178
  156HFI     F3 2355   0.966   3.263   3.901  0.2383  0.0538 -0.0457
  156HFI     C3 2356   1.264   3.232   3.961  0.5442  0.4491 -0.9910
  156HFI     F4 2357   1.371   3.155   3.980 -0.1364 -0.4059  0.4250
  156HFI     F5 2358   1.191   3.223   4.069  0.1767 -0.3311 -0.2134
  156HFI     F6 2359   1.310   3.358   3.952 -0.1062  0.2656  0.2109
  156HFI     H1 2360   1.281   3.287   3.697 -1.0804  0.0530 -0.3802
  156HFI     H2 2361   1.156   3.078   3.845  0.9298  0.4921  1.6781
  157HFI     O1 2362   2.532   0.586   2.739  0.5997 -0.3486  0.3456
  157HFI     C1 2363   2.572   0.481   2.825  0.4272 -1.0811  1.0366
  157HFI     C2 2364   2.503   0.504   2.968  0.3080  0.3198  0.4618
  157HFI     F1 2365   2.365   0.528   2.961  0.1284  0.2982  0.1633
  157HFI     F2 2366   2.554   0.609   3.037 -0.9501 -0.1333 -0.2460
  157HFI     F3 2367   2.520   0.391   3.047  0.2003 -0.1272  0.4271
  157HFI     C3 2368   2.728   0.470   2.832 -0.2587 -0.8422 -0.3304
  157HFI     F4 2369   2.764   0.374   2.919  0.1226 -0.0019  0.7377
  157HFI     F5 2370   2.780   0.584   2.876 -0.3933  0.4128 -0.0526
  157HFI     F6 2371   2.779   0.437   2.712 -0.4203 -0.3930  0.0871
  157HFI     H1 2372   2.547   0.672   2.781  1.8425 -0.4450  0.1180
  157HFI     H2 2373   2.529   0.387   2.789  0.5688 -1.1162  0.9620
  158HFI     O1 2374   3.353   1.853   2.201 -0.3233 -0.1460  0.4442
  158HFI     C1 2375   3.294   1.902   2.327  0.1467  0.1309 -0.7590
  158HFI     C2 2376   3.153   1.959   2.300  0.3785 -0.2971  0.5129
  158HFI     F1 2377   3.090   1.890   2.209 -0.7140  0.4739  0.1883
  158HFI     F2 2378   3.161   2.086   2.258  0.1839  0.0892 -0.8790
  158HFI     F3 2379   3.081   1.956   2.416  0.1103  0.8823  0.0160
  158HFI     C3 2380   3.388   1.978   2.425  0.3844 -0.3614  0.2959
  158HFI     F4 2381   3.485   1.904   2.474  0.1011  0.0767  0.0978
  158HFI     F5 2382   3.318   2.034   2.527  0.3110 -0.1018 -0.3898
  158HFI     F6 2383   3.451   2.076   2.361 -0.4390  0.8826  0.4544
  158HFI     H1 2384   3.303   1.894   2.129 -0.3979 -0.1568  0.4899
  158HFI     H2 2385   3.269   1.816   2.390  0.2511 -0.3362 -1.3503
  159HFI     O1 2386   2.626   2.807   1.315  0.1806 -0.0893 -0.9288
  159HFI     C1 2387   2.748   2.842   1.390  0.1760 -0.5582  0.2908
  159HFI     C2 2388   2.746   2.780   1.531  0.6427 -0.1770 -0.5639
  159HFI     F1 2389   2.638   2.814   1.603 -0.3840 -0.0693  0.0331
  159HFI     F2 2390   2.852   2.818   1.603 -0.2086  0.1254  0.3744
  159HFI     F3 2391   2.744   2.647   1.531 -0.5681 -0.3353  0.0003
  159HFI     C3 2392   2.778   2.992   1.387  0.4163 -0.5843 -0.0706
  159HFI     F4 2393   2.693   3.063   1.460  0.2345 -0.0034 -0.0046
  159HFI     F5 2394   2.777   3.046   1.265  0.2542 -0.1240 -0.2181
  159HFI     F6 2395   2.900   3.015   1.444 -0.3396 -0.2753  0.5367
  159HFI     H1 2396   2.547   2.814   1.371  0.2341  1.7043 -1.0720
  159HFI     H2 2397   2.837   2.800   1.342  0.3679  0.6795 -0.4500
  160HFI     O1 2398   0.924   0.097   2.760 -0.1243 -0.1471 -0.1961
  160HFI     C1 2399   0.954   0.216   2.845 -0.4097  0.1263  0.8291
  160HFI     C2 2400   0.832   0.315   2.845 -0.1618  0.2224 -0.1260
  160HFI     F1 2401   0.827   0.386   2.730 -0.5480  0.7021  0.1422
  160HFI     F2 2402   0.845   0.401   2.945 -0.2063 -0.1275 -0.3505
  160HFI     F3 2403   0.710   0.257   2.855  0.3963  0.4410 -0.3248
  160HFI     C3 2404   1.098   0.279   2.808  0.1040 -1.0915  0.8795
  160HFI     F4 2405   1.130   0.374   2.893 -0.2893 -0.4835  0.3581
  160HFI     F5 2406   1.111   0.326   2.681  0.4334 -0.4450 -0.1350
  160HFI     F6 2407   1.191   0.180   2.822  0.5326 -0.0617  0.2029
  160HFI     H1 2408   0.950   0.019   2.812  2.0893  1.4293  1.1622
  160HFI     H2 2409   0.966   0.190   2.951 -0.3138  1.7708  1.2396
  161HFI     O1 2410   2.677   2.557   0.334  0.2643 -0.2682  0.3140
  161HFI     C1 2411   2.646   2.448   0.419 -0.1036  0.3671 -0.6630
  161HFI     C2 2412   2.684   2.479   0.568 -0.5809 -0.0278 -0.7935
  161HFI     F1 2413   2.634   2.385   0.650  0.0895  0.0234 -0.0946
  161HFI     F2 2414   2.646   2.589   0.610 -0.2408 -0.2536 -0.0655
  161HFI     F3 2415   2.826   2.470   0.588  0.2399  0.4868  0.8637
  161HFI     C3 2416   2.703   2.311   0.366 -0.1599  0.0644 -0.1303
  161HFI     F4 2417   2.834   2.324   0.361  0.2476  0.6513  0.2071
  161HFI     F5 2418   2.656   2.274   0.244  0.1947  0.0558  0.4892
  161HFI     F6 2419   2.686   2.208   0.451  0.3711  0.3821  0.1165
  161HFI     H1 2420   2.618   2.630   0.362 -1.2848 -1.8235  1.2170
  161HFI     H2 2421   2.537   2.436   0.416  0.0426 -1.9004  1.6117
  162HFI     O1 2422   1.011   3.063   2.739 -0.4986 -0.2156 -0.1734
  162HFI     C1 2423   1.081   3.062   2.865 -0.0756 -0.2070 -0.0837
  162HFI     C2 2424   1.083   3.210   2.922  0.0094  0.5715 -0.6967
  162HFI     F1 2425   0.954   3.247   2.929 -0.1007  0.2082  0.0434
  162HFI     F2 2426   1.144   3.304   2.848 -0.3183 -0.0063 -0.3778
  162HFI     F3 2427   1.137   3.214   3.046 -0.0428  0.0420  0.2284
  162HFI     C3 2428   1.233   3.019   2.848 -0.0058 -0.0033 -0.1986
  162HFI     F4 2429   1.239   2.893   2.798 -0.5927 -0.2350  0.2695
  162HFI     F5 2430   1.294   3.005   2.970 -0.4635 -0.1709  0.1318
  162HFI     F6 2431   1.306   3.100   2.774  0.0543 -0.1817 -0.1449
  162HFI     H1 2432   0.989   2.970   2.720 -1.5718 -0.3192  1.4296
  162HFI     H2 2433   1.034   2.995   2.938  0.2042 -1.1024 -0.7119
  163HFI     O1 2434   1.696   1.958   2.401 -0.3811 -0.5143 -0.0057
  163HFI     C1 2435   1.664   2.053   2.293  0.5386  0.1900  0.4380
  163HFI     C2 2436   1.784   2.143   2.259 -0.1137 -0.4890  0.0822
  163HFI     F1 2437   1.752   2.265   2.201 -0.3986 -0.0039  0.1787
  163HFI     F2 2438   1.852   2.078   2.172 -0.1822  0.1959 -0.1577
  163HFI     F3 2439   1.866   2.172   2.367 -0.1464  0.4946 -0.1541
  163HFI     C3 2440   1.539   2.128   2.334  0.4658 -0.9183  0.0374
  163HFI     F4 2441   1.441   2.033   2.339  0.5843 -0.0455  0.2349
  163HFI     F5 2442   1.504   2.218   2.242 -0.4927  0.0758  0.0409
  163HFI     F6 2443   1.551   2.198   2.453 -0.4770  0.3245 -0.0238
  163HFI     H1 2444   1.632   1.955   2.474 -1.0077  0.4854 -0.5091
  163HFI     H2 2445   1.621   2.010   2.202 -0.6038  0.0484  1.0291
  164HFI     O1 2446   1.529   1.944   3.329  0.3310 -0.1066 -0.3689
  164HFI     C1 2447   1.613   1.875   3.236  0.5978 -0.8330  0.0117
  164HFI     C2 2448   1.617   1.939   3.097 -0.5881 -0.2159  0.0919
  164HFI     F1 2449   1.621   2.071   3.106  0.1226 -0.4271 -0.5178
  164HFI     F2 2450   1.509   1.913   3.019  0.3097 -0.5420 -0.2548
  164HFI     F3 2451   1.726   1.896   3.025  0.3176  0.0857 -0.2067
  164HFI     C3 2452   1.595   1.720   3.233  0.3044  0.3049 -0.2103
  164HFI     F4 2453   1.603   1.669   3.365  0.6696  0.4653 -0.2085
  164HFI     F5 2454   1.684   1.654   3.164 -0.7998 -0.1551  0.1136
  164HFI     F6 2455   1.475   1.689   3.181 -0.1882  0.0778  0.1621
  164HFI     H1 2456   1.522   1.901   3.416 -0.9249 -0.7665 -0.7742
  164HFI     H2 2457   1.714   1.894   3.275  0.2770  0.3086  0.3202
  165HFI     O1 2458   1.990   1.528   2.393  0.4799 -0.0291  0.2037
  165HFI     C1 2459   1.975   1.636   2.286 -0.3556 -0.4629 -0.7820
  165HFI     C2 2460   2.046   1.774   2.305 -0.5631  0.2879 -0.2386
  165HFI     F1 2461   1.974   1.851   2.398  0.6504  0.2287  0.1672
  165HFI     F2 2462   2.058   1.844   2.193 -0.8750  0.2324  0.4662
  165HFI     F3 2463   2.166   1.754   2.368 -0.0332  0.4718 -0.2374
  165HFI     C3 2464   1.826   1.654   2.259 -0.1529  0.9164  0.1637
  165HFI     F4 2465   1.799   1.770   2.194  0.0748  0.0533 -0.2175
  165HFI     F5 2466   1.760   1.658   2.377 -0.1217 -0.4105  0.2910
  165HFI     F6 2467   1.773   1.556   2.184 -0.0710  0.3611  0.7846
  165HFI     H1 2468   1.970   1.570   2.478 -1.1384 -0.6822  0.1541
  165HFI     H2 2469   2.036   1.603   2.201  1.7297  1.6386 -0.1654
  166HFI     O1 2470   2.414   0.523   3.748  1.0077  0.2049 -0.0819
  166HFI     C1 2471   2.350   0.427   3.842 -0.8726  0.0285 -0.2766
  166HFI     C2 2472   2.221   0.494   3.902  0.4369  0.6190 -0.3678
  166HFI     F1 2473   2.148   0.548   3.802  0.2958  0.0784 -0.0740
  166HFI     F2 2474   2.245   0.597   3.984 -0.7671  0.4826  0.3554
  166HFI     F3 2475   2.139   0.396   3.952  0.2642  0.0521  0.0609
  166HFI     C3 2476   2.437   0.373   3.961 -0.0476 -0.1511 -0.1015
  166HFI     F4 2477   2.371   0.283   4.034 -0.1022  0.4973  0.3930
  166HFI     F5 2478   2.470   0.480   4.035 -0.4278  0.7222 -0.1658
  166HFI     F6 2479   2.546   0.309   3.924  0.3481 -0.0897  0.0987
  166HFI     H1 2480   2.346   0.577   3.705  1.2768  0.3079 -0.3746
  166HFI     H2 2481   2.308   0.340   3.793 -1.2352  1.3621 -2.3822
  167HFI     O1 2482   1.909   3.228   3.653  0.4852 -0.1193  0.3184
  167HFI     C1 2483   1.768   3.209   3.698 -0.1617  1.7091 -0.2784
  167HFI     C2 2484   1.756   3.061   3.758 -0.0802  0.1836  0.7838
  167HFI     F1 2485   1.838   3.059   3.870  0.4919  0.2287 -0.0124
  167HFI     F2 2486   1.811   2.973   3.665 -0.2966 -0.1376 -0.3177
  167HFI     F3 2487   1.637   3.011   3.797  0.4972  0.0291  0.0051
  167HFI     C3 2488   1.668   3.235   3.584 -0.2257 -0.5294 -0.2469
  167HFI     F4 2489   1.694   3.161   3.473  0.2028 -0.0583  0.7419
  167HFI     F5 2490   1.666   3.367   3.541 -0.5386  0.0956 -0.0281
  167HFI     F6 2491   1.544   3.200   3.622  0.1558 -0.0570  0.0807
  167HFI     H1 2492   1.934   3.163   3.586  3.8269  0.8451  0.5398
  167HFI     H2 2493   1.744   3.279   3.778  1.7169  1.6067  0.4066
  168HFI     O1 2494   0.619   2.062   2.221  0.2094 -0.3343  0.1563
  168HFI     C1 2495   0.567   1.990   2.335  0.0275 -0.4437 -0.3888
  168HFI     C2 2496   0.681   1.896   2.386  0.9561 -0.6180 -0.1104
  168HFI     F1 2497   0.729   1.810   2.292 -0.3375 -0.3400 -0.5687
  168HFI     F2 2498   0.636   1.819   2.486 -0.4629 -0.5279  0.6514
  168HFI     F3 2499   0.782   1.969   2.434 -0.0778 -0.4653 -0.5577
  168HFI     C3 2500   0.435   1.919   2.298  0.4032  0.5516  0.1729
  168HFI     F4 2501   0.345   2.012   2.255 -0.2417 -0.6830  0.0469
  168HFI     F5 2502   0.385   1.860   2.409  0.0095  0.7124  0.7151
  168HFI     F6 2503   0.446   1.825   2.199  0.5051 -0.2267  0.3191
  168HFI     H1 2504   0.581   2.151   2.234  1.4902  0.5932 -2.1042
  168HFI     H2 2505   0.543   2.056   2.419 -0.5133 -4.1063  2.4785
  169HFI     O1 2506   0.353   2.111   2.542  0.2045 -0.6599 -0.1029
  169HFI     C1 2507   0.347   2.127   2.684 -0.2627 -0.8536  0.0574
  169HFI     C2 2508   0.315   1.990   2.758 -0.2509  0.0022  0.4232
  169HFI     F1 2509   0.187   1.943   2.723  0.0895 -0.8827  0.0076
  169HFI     F2 2510   0.320   2.020   2.895 -0.2527 -0.3069  0.1186
  169HFI     F3 2511   0.407   1.892   2.731  0.2181  0.0154 -0.5443
  169HFI     C3 2512   0.245   2.241   2.703  0.2268  0.2113 -0.1527
  169HFI     F4 2513   0.128   2.217   2.631  0.1645  0.1444  0.3359
  169HFI     F5 2514   0.299   2.357   2.658  0.1620 -0.3571 -0.0812
  169HFI     F6 2515   0.207   2.269   2.827 -0.8083  0.3228  0.0298
  169HFI     H1 2516   0.264   2.074   2.529 -0.1084  0.2705 -0.6198
  169HFI     H2 2517   0.442   2.163   2.727 -0.0674 -0.1941 -0.9123
  170HFI     O1 2518   3.092   1.557   2.874  0.1050 -0.3789  0.2923
  170HFI     C1 2519   3.141   1.571   3.012  0.0605  0.7380  0.0071
  170HFI     C2 2520   3.080   1.464   3.106  0.0502 -0.3239  0.7347
  170HFI     F1 2521   3.100   1.341   3.065 -0.1961 -0.3788  0.1244
  170HFI     F2 2522   2.945   1.471   3.121  0.0503  0.4510 -0.0065
  170HFI     F3 2523   3.136   1.472   3.231 -0.1758 -0.0630 -0.3286
  170HFI     C3 2524   3.101   1.714   3.061 -0.2878 -0.7250 -0.7055
  170HFI     F4 2525   3.150   1.745   3.183  0.1559 -0.1724 -0.3341
  170HFI     F5 2526   2.964   1.728   3.054  0.2020 -0.0169 -0.6026
  170HFI     F6 2527   3.147   1.802   2.973  0.0376  0.1775 -0.0798
  170HFI     H1 2528   3.022   1.620   2.850  1.4143 -0.6052 -4.6655
  170HFI     H2 2529   3.249   1.555   3.011 -0.2701 -1.9824  1.9294
  171HFI     O1 2530   3.344   3.147   2.351 -0.3816  0.3395 -0.2604
  171HFI     C1 2531   3.361   3.013   2.310  0.3679  0.4111 -0.3804
  171HFI     C2 2532   3.227   2.948   2.287  0.7852 -0.2541  0.2851
  171HFI     F1 2533   3.233   2.824   2.231 -0.3533 -0.4198  0.2530
  171HFI     F2 2534   3.141   3.022   2.210  0.7466  0.1673  0.2493
  171HFI     F3 2535   3.168   2.933   2.408  0.1289 -0.0275  0.0618
  171HFI     C3 2536   3.466   2.930   2.394  0.0424  0.4993 -0.1402
  171HFI     F4 2537   3.432   2.897   2.514  0.4648 -0.2768  0.1431
  171HFI     F5 2538   3.576   3.000   2.402  0.0622  0.0300 -0.2036
  171HFI     F6 2539   3.483   2.821   2.318  0.4778  0.7039  0.0728
  171HFI     H1 2540   3.303   3.150   2.440 -0.3299 -0.5423 -0.1966
  171HFI     H2 2541   3.410   3.007   2.212 -0.8563  0.7531 -1.0231
  172HFI     O1 2542   3.121   1.886   0.851  0.1031  0.1681  0.4583
  172HFI     C1 2543   3.154   1.772   0.937  0.5258  0.4423  0.3085
  172HFI     C2 2544   3.053   1.659   0.950 -0.1119  0.4311  0.3610
  172HFI     F1 2545   3.119   1.557   0.988  0.4286 -0.5906 -0.2294
  172HFI     F2 2546   3.000   1.625   0.832 -0.3158 -0.4191  0.3845
  172HFI     F3 2547   2.960   1.693   1.043 -0.2355  1.1980 -0.0578
  172HFI     C3 2548   3.197   1.827   1.079 -0.5488 -1.3364  0.2661
  172HFI     F4 2549   3.317   1.893   1.075  0.0196  0.2771 -0.5868
  172HFI     F5 2550   3.215   1.727   1.167  0.0709 -0.0946  0.7277
  172HFI     F6 2551   3.109   1.918   1.123  0.4750 -0.6657 -0.0358
  172HFI     H1 2552   3.044   1.934   0.884  0.2775  0.6809  0.1365
  172HFI     H2 2553   3.241   1.722   0.891 -0.0207 -1.2383  1.0660
  173HFI     O1 2554   0.440   3.433   0.292  0.2661 -0.1512  0.6082
  173HFI     C1 2555   0.568   3.397   0.340  0.0401 -0.5272 -0.5856
  173HFI     C2 2556   0.681   3.418   0.233 -0.2917 -0.7895 -0.1274
  173HFI     F1 2557   0.686   3.546   0.195 -0.1934 -0.5628  0.0219
  173HFI     F2 2558   0.660   3.339   0.123  0.0925  0.0035  0.3971
  173HFI     F3 2559   0.799   3.397   0.289 -0.2785  0.0699  0.3222
  173HFI     C3 2560   0.574   3.258   0.402  0.6363 -0.7568 -0.4807
  173HFI     F4 2561   0.577   3.157   0.310 -0.7385  0.3603  0.2338
  173HFI     F5 2562   0.473   3.242   0.484 -0.2336  0.1672  0.0721
  173HFI     F6 2563   0.689   3.244   0.471  0.7063 -0.5079 -0.1973
  173HFI     H1 2564   0.458   3.510   0.235  0.8843 -1.9251 -1.6191
  173HFI     H2 2565   0.588   3.466   0.423 -0.9910  0.2190 -0.9525
  174HFI     O1 2566   0.281   1.319   2.477  0.1775  0.2046  0.4539
  174HFI     C1 2567   0.249   1.377   2.347  0.5730  0.9391 -0.6581
  174HFI     C2 2568   0.381   1.414   2.276 -0.1479 -0.0015  0.1834
  174HFI     F1 2569   0.455   1.474   2.368  0.1794 -0.3143  0.2587
  174HFI     F2 2570   0.367   1.498   2.172  0.0553  0.0349  0.0130
  174HFI     F3 2571   0.441   1.301   2.238 -0.3308  0.4453 -0.0094
  174HFI     C3 2572   0.154   1.496   2.363 -0.4476 -0.2208  0.1719
  174HFI     F4 2573   0.217   1.616   2.380  1.0083 -0.0538 -0.2528
  174HFI     F5 2574   0.071   1.475   2.461 -0.2729  0.0404  0.1455
  174HFI     F6 2575   0.078   1.511   2.250 -0.3010 -0.1568 -0.1821
  174HFI     H1 2576   0.347   1.373   2.523 -0.2832  0.4361  0.8560
  174HFI     H2 2577   0.200   1.303   2.282 -0.2944  0.6622  0.3014
  175HFI     O1 2578   1.285   2.228   2.736  0.6920 -0.5576  0.2215
  175HFI     C1 2579   1.283   2.093   2.795 -0.0330 -0.6275  0.2318
  175HFI     C2 2580   1.380   1.998   2.713  0.2163  0.3408  0.1497
  175HFI     F1 2581   1.355   1.998   2.583  0.7648 -0.0790 -0.2213
  175HFI     F2 2582   1.369   1.865   2.748 -0.0464 -1.0628 -0.2684
  175HFI     F3 2583   1.513   2.026   2.731  0.3877 -0.1488  0.0458
  175HFI     C3 2584   1.136   2.044   2.799 -0.1007  0.1511  0.1491
  175HFI     F4 2585   1.118   1.914   2.836 -0.1819  0.2042  0.0927
  175HFI     F5 2586   1.086   2.054   2.669 -0.1111 -0.3046 -0.4705
  175HFI     F6 2587   1.060   2.130   2.873  0.7430  0.0076  0.2128
  175HFI     H1 2588   1.233   2.234   2.654  2.9837  1.5248 -1.1532
  175HFI     H2 2589   1.317   2.088   2.899  1.4948 -1.4754 -0.2806
  176HFI     O1 2590   1.516   1.151   2.469  0.1247  0.4331  0.4747
  176HFI     C1 2591   1.431   1.241   2.385 -0.4531  0.4372 -0.7895
  176HFI     C2 2592   1.346   1.155   2.289 -0.7460 -0.3261 -0.8438
  176HFI     F1 2593   1.288   1.053   2.362 -0.0297  0.5306 -0.1212
  176HFI     F2 2594   1.410   1.095   2.190 -0.3687  0.3088  0.3982
  176HFI     F3 2595   1.241   1.228   2.247 -0.2342  0.7970  0.1952
  176HFI     C3 2596   1.500   1.356   2.310  0.0193  0.1552  1.0162
  176HFI     F4 2597   1.416   1.442   2.254 -0.4084 -0.4035 -0.2355
  176HFI     F5 2598   1.588   1.301   2.224 -0.3943 -0.4988  0.4497
  176HFI     F6 2599   1.562   1.426   2.408  0.2031  0.2293  0.0907
  176HFI     H1 2600   1.592   1.113   2.420 -0.7902 -0.9799  0.1033
  176HFI     H2 2601   1.372   1.296   2.459 -1.0165  1.2366 -1.8222
  177HFI     O1 2602   1.587   1.737   2.593 -0.0025 -0.2356 -0.1423
  177HFI     C1 2603   1.652   1.700   2.720 -0.2384  0.0427  0.9749
  177HFI     C2 2604   1.807   1.734   2.713 -1.4627  0.5564  0.5987
  177HFI     F1 2605   1.862   1.653   2.620  0.0790 -0.4153 -0.2399
  177HFI     F2 2606   1.849   1.709   2.841 -0.5232 -0.4807  0.3482
  177HFI     F3 2607   1.830   1.864   2.686 -0.3257 -0.0082 -0.1047
  177HFI     C3 2608   1.610   1.552   2.747 -0.1332 -0.9010  0.6580
  177HFI     F4 2609   1.659   1.509   2.865 -0.0552  0.0817  0.0138
  177HFI     F5 2610   1.659   1.472   2.650 -0.1708 -0.3036  0.2304
  177HFI     F6 2611   1.474   1.543   2.746  0.1946  0.2213  0.1990
  177HFI     H1 2612   1.572   1.653   2.548  2.0412 -1.4327  1.3013
  177HFI     H2 2613   1.615   1.757   2.806 -1.5470 -2.4691  2.1297
  178HFI     O1 2614   0.093   2.410   0.221  0.0571 -0.9330  0.8963
  178HFI     C1 2615   0.105   2.410   0.075  0.4237 -0.7592 -0.4713
  178HFI     C2 2616   0.126   2.274   0.011 -1.5348  0.8454  0.1502
  178HFI     F1 2617   0.035   2.189   0.046  0.2767 -0.1690  0.2568
  178HFI     F2 2618   0.237   2.221   0.060 -0.0474  0.2210  0.0241
  178HFI     F3 2619   0.141   2.280  -0.123  0.0633 -0.0909  0.0998
  178HFI     C3 2620   0.214   2.510   0.024 -0.1869 -0.3969  0.1795
  178HFI     F4 2621   0.337   2.487   0.055  0.0994  0.2472  0.2107
  178HFI     F5 2622   0.196   2.639   0.081 -0.5474 -0.2138  0.0955
  178HFI     F6 2623   0.209   2.546  -0.109  0.5002  0.3751 -0.3417
  178HFI     H1 2624   0.056   2.324   0.249  0.5315 -1.3900  0.1439
  178HFI     H2 2625   0.012   2.455   0.038  0.0472 -1.3973 -0.3038
  179HFI     O1 2626   2.226   0.891   0.978  0.6349  0.0728 -0.2574
  179HFI     C1 2627   2.368   0.898   0.944  0.3588  0.1821  0.1886
  179HFI     C2 2628   2.454   0.814   1.044  0.2259 -0.2426  0.2171
  179HFI     F1 2629   2.431   0.860   1.173  0.1437 -0.1418 -0.0604
  179HFI     F2 2630   2.590   0.821   1.016 -0.0993  0.4053  0.0432
  179HFI     F3 2631   2.427   0.681   1.049  0.0516 -0.2384  0.2349
  179HFI     C3 2632   2.419   1.050   0.932 -0.0522  0.0736  0.3691
  179HFI     F4 2633   2.548   1.059   0.898 -0.1520 -0.1090 -0.2141
  179HFI     F5 2634   2.394   1.117   1.046  0.1403  0.2618  0.0824
  179HFI     F6 2635   2.349   1.113   0.838  0.1842 -0.1010  0.2048
  179HFI     H1 2636   2.175   0.951   0.921  0.6514 -0.3227 -0.6836
  179HFI     H2 2637   2.383   0.849   0.847 -0.4765 -0.6966  0.4891
  180HFI     O1 2638   2.776   2.065   3.337 -0.4848  0.6035 -0.3851
  180HFI     C1 2639   2.804   2.074   3.483  0.6278  0.3522  0.8079
  180HFI     C2 2640   2.770   1.941   3.559 -0.8471 -0.4998  0.0361
  180HFI     F1 2641   2.856   1.842   3.518 -0.3679  0.1874 -0.3581
  180HFI     F2 2642   2.644   1.905   3.528 -0.0571  0.2609 -0.8575
  180HFI     F3 2643   2.777   1.956   3.693 -0.3460  0.0246  0.0556
  180HFI     C3 2644   2.711   2.197   3.539 -0.8169 -0.2969 -0.3121
  180HFI     F4 2645   2.713   2.216   3.675  0.1116 -0.0184  0.0422
  180HFI     F5 2646   2.581   2.161   3.505 -0.3914 -0.3780 -0.4870
  180HFI     F6 2647   2.729   2.322   3.482  0.2552  0.4437 -0.2955
  180HFI     H1 2648   2.859   2.044   3.292 -0.1845  3.0420 -1.0615
  180HFI     H2 2649   2.911   2.098   3.495  0.7373  0.9491 -1.1938
  181HFI     O1 2650   2.128   2.577   3.404 -0.3469  0.5989  0.3118
  181HFI     C1 2651   2.221   2.463   3.396  0.1690 -0.6142 -0.0047
  181HFI     C2 2652   2.369   2.508   3.361 -0.4450  0.0662 -0.0723
  181HFI     F1 2653   2.456   2.404   3.355 -0.0729 -0.9922 -0.1886
  181HFI     F2 2654   2.411   2.593   3.460  0.5468  0.1894 -0.4474
  181HFI     F3 2655   2.376   2.575   3.244  0.0672 -0.1047  0.1801
  181HFI     C3 2656   2.169   2.346   3.310  0.6140 -0.1266  0.5274
  181HFI     F4 2657   2.242   2.234   3.339 -0.7239  0.0070  0.6685
  181HFI     F5 2658   2.178   2.371   3.184  0.4626 -0.3396 -0.2989
  181HFI     F6 2659   2.040   2.315   3.346 -0.2988 -0.4272 -0.1273
  181HFI     H1 2660   2.093   2.598   3.315  0.3273  3.7391  0.7112
  181HFI     H2 2661   2.239   2.429   3.499 -0.3951  1.0901  0.6618
  182HFI     O1 2662   3.320   0.106   2.728  0.0724 -0.6544 -0.2235
  182HFI     C1 2663   3.288  -0.003   2.823 -0.1118 -0.1830 -0.1983
  182HFI     C2 2664   3.407  -0.041   2.914  0.3367  0.2009 -0.0483
  182HFI     F1 2665   3.376  -0.136   3.004  0.5764  0.4605 -0.4532
  182HFI     F2 2666   3.439   0.065   2.995 -0.3235 -0.4960  0.0570
  182HFI     F3 2667   3.515  -0.086   2.849 -0.5624 -0.1965  0.3520
  182HFI     C3 2668   3.204  -0.115   2.745 -0.9068  0.5453  0.4667
  182HFI     F4 2669   3.183  -0.215   2.836 -0.1106 -0.4097  0.0528
  182HFI     F5 2670   3.286  -0.163   2.647  0.0879  0.5694 -0.3356
  182HFI     F6 2671   3.088  -0.068   2.695 -0.1883  0.2557  0.0032
  182HFI     H1 2672   3.277   0.189   2.755  3.6229  1.0478  0.6249
  182HFI     H2 2673   3.212   0.045   2.886 -4.0788 -2.8431 -2.7058
  183HFI     O1 2674   0.994   0.818   3.621 -0.2076  0.2183 -0.3743
  183HFI     C1 2675   1.089   0.924   3.603 -0.4520  0.1822 -0.2529
  183HFI     C2 2676   1.186   0.942   3.724 -0.4132  0.2451 -0.2129
  183HFI     F1 2677   1.261   1.048   3.698 -0.0256  0.5865 -0.3237
  183HFI     F2 2678   1.259   0.828   3.727 -0.4784  0.3710 -0.0829
  183HFI     F3 2679   1.122   0.959   3.836 -0.0968  0.2445 -0.5214
  183HFI     C3 2680   1.010   1.052   3.565  0.1578  0.1600 -0.3833
  183HFI     F4 2681   0.906   1.026   3.476  0.4012 -0.0657  0.5030
  183HFI     F5 2682   1.084   1.144   3.504  0.6744 -0.3056  0.1776
  183HFI     F6 2683   0.957   1.113   3.671 -0.3206 -0.0267 -0.5428
  183HFI     H1 2684   0.918   0.849   3.674  0.1126 -0.5401  0.5258
  183HFI     H2 2685   1.151   0.897   3.516  1.5242 -0.0221  1.1808
  184HFI     O1 2686   3.377   0.755   3.691  0.7475  0.1627 -0.2309
  184HFI     C1 2687   3.385   0.875   3.770  0.2188 -0.5495  0.0043
  184HFI     C2 2688   3.245   0.914   3.833 -0.3008  0.5920  0.2535
  184HFI     F1 2689   3.169   0.992   3.747 -0.1265 -0.4114 -0.0302
  184HFI     F2 2690   3.263   0.979   3.953  0.2315  0.0022  0.3752
  184HFI     F3 2691   3.172   0.799   3.861 -0.1750  0.4010  0.7153
  184HFI     C3 2692   3.461   0.992   3.703  0.4372  1.0958 -0.6084
  184HFI     F4 2693   3.592   0.968   3.718  0.5254  0.5957 -0.0712
  184HFI     F5 2694   3.428   1.103   3.775  0.3168  0.3016  0.0056
  184HFI     F6 2695   3.442   1.003   3.569  0.2430 -0.1231  0.0579
  184HFI     H1 2696   3.330   0.774   3.608  1.5789  0.8016 -0.5681
  184HFI     H2 2697   3.432   0.846   3.864  1.7915 -0.6686 -0.8045
  185HFI     O1 2698   2.135   2.876   2.225 -0.0149 -0.7532 -0.5810
  185HFI     C1 2699   2.173   3.005   2.274  0.0701  0.2912 -0.0883
  185HFI     C2 2700   2.318   3.002   2.311  0.2041  0.1160  0.0274
  185HFI     F1 2701   2.377   3.126   2.328  0.4523 -0.1868  0.2581
  185HFI     F2 2702   2.389   2.935   2.210  0.5530  0.0337  0.8306
  185HFI     F3 2703   2.347   2.932   2.423  0.4856  0.7355  0.1913
  185HFI     C3 2704   2.084   3.049   2.393 -0.1442  0.1391 -0.5978
  185HFI     F4 2705   2.120   3.166   2.449  0.9100 -0.1813  0.2564
  185HFI     F5 2706   2.085   2.962   2.497  0.2523 -0.4239 -0.4219
  185HFI     F6 2707   1.954   3.058   2.352  0.1767  0.1012 -0.6199
  185HFI     H1 2708   2.188   2.808   2.269 -1.1605 -0.9159  0.5811
  185HFI     H2 2709   2.164   3.074   2.188  0.0871  0.3229 -0.0642
  186HFI     O1 2710   1.716   0.134   2.229  0.3894 -0.0564  0.0105
  186HFI     C1 2711   1.815   0.117   2.337  0.6322  0.0914 -0.3685
  186HFI     C2 2712   1.946   0.069   2.273  0.1153  0.1714 -0.3449
  186HFI     F1 2713   1.924  -0.037   2.197 -0.2531  0.2974  0.0639
  186HFI     F2 2714   2.034   0.030   2.363  0.3159  0.3692 -0.0911
  186HFI     F3 2715   2.009   0.168   2.202 -0.3290  0.6123 -0.1203
  186HFI     C3 2716   1.770   0.026   2.456  0.4618  0.2149  0.0669
  186HFI     F4 2717   1.702  -0.087   2.405  0.3858  0.0410 -0.3502
  186HFI     F5 2718   1.674   0.088   2.531 -0.2668 -0.0648 -0.8375
  186HFI     F6 2719   1.869  -0.025   2.540  0.5326 -0.1578 -0.3846
  186HFI     H1 2720   1.631   0.154   2.272  0.2986 -1.3310  0.4402
  186HFI     H2 2721   1.835   0.218   2.374 -0.0907  0.1397 -0.1107
  187HFI     O1 2722   2.785   0.856   2.956  0.1294 -0.7356 -0.3039
  187HFI     C1 2723   2.810   0.928   2.832  0.6638 -0.0656  0.7366
  187HFI     C2 2724   2.934   1.022   2.849  0.2980  0.2676 -1.0099
  187HFI     F1 2725   3.029   0.956   2.912  0.4780  0.1416  0.0817
  187HFI     F2 2726   2.899   1.133   2.922  0.8036 -0.1561 -1.2350
  187HFI     F3 2727   2.989   1.056   2.735 -0.2538 -0.3559 -0.3929
  187HFI     C3 2728   2.683   0.990   2.762 -0.1942 -0.1086  0.6229
  187HFI     F4 2729   2.712   1.052   2.649  0.2655  0.3831 -0.1543
  187HFI     F5 2730   2.604   1.076   2.829  0.1602  0.5693 -0.2536
  187HFI     F6 2731   2.596   0.894   2.729 -0.5818  0.2535 -0.0041
  187HFI     H1 2732   2.861   0.872   3.014 -1.2381  1.6222  0.9094
  187HFI     H2 2733   2.844   0.848   2.765  1.9945 -0.9844  2.4846
  188HFI     O1 2734   0.859   1.473   2.501 -0.0822  0.6157 -0.0325
  188HFI     C1 2735   0.907   1.371   2.408 -0.3566  0.1340 -0.3033
  188HFI     C2 2736   0.809   1.326   2.302 -0.5429  0.2928 -0.0155
  188HFI     F1 2737   0.872   1.249   2.204 -0.2993 -0.2852  0.7819
  188HFI     F2 2738   0.763   1.434   2.240  0.3789 -0.2273 -0.2907
  188HFI     F3 2739   0.708   1.261   2.348  0.1734  0.2018 -0.6136
  188HFI     C3 2740   0.952   1.241   2.482 -0.1505 -0.0113 -0.0010
  188HFI     F4 2741   0.847   1.173   2.541 -0.1036 -0.4106  0.2270
  188HFI     F5 2742   1.038   1.273   2.571  0.6428 -0.4855 -0.1855
  188HFI     F6 2743   1.018   1.155   2.398 -0.6705 -0.1655  0.2674
  188HFI     H1 2744   0.807   1.424   2.566  0.2658 -0.1119 -0.2874
  188HFI     H2 2745   0.995   1.403   2.352  0.3554 -1.1073  0.0886
  189HFI     O1 2746   3.373   1.184   1.306  0.1663 -0.4392  0.1448
  189HFI     C1 2747   3.400   1.276   1.413  0.4958  0.3886  0.2124
  189HFI     C2 2748   3.505   1.221   1.509 -0.1528 -0.1188 -0.6117
  189HFI     F1 2749   3.611   1.194   1.431  0.1609 -0.0040 -0.0893
  189HFI     F2 2750   3.469   1.103   1.559  0.5805 -0.7705 -0.2823
  189HFI     F3 2751   3.534   1.313   1.606 -0.3590 -0.9477 -0.4105
  189HFI     C3 2752   3.268   1.313   1.503 -0.8177 -0.0599 -0.1355
  189HFI     F4 2753   3.231   1.212   1.576 -0.3977  0.1388  0.1014
  189HFI     F5 2754   3.166   1.345   1.418 -0.2170  0.3931  0.4445
  189HFI     F6 2755   3.297   1.416   1.586  0.6366  0.4703  0.0302
  189HFI     H1 2756   3.323   1.109   1.341  1.3499 -0.4470  1.8613
  189HFI     H2 2757   3.445   1.363   1.365 -0.8174 -0.1806 -2.1056
  190HFI     O1 2758   1.214   0.170   0.698 -0.5092 -0.9666  0.6148
  190HFI     C1 2759   1.070   0.173   0.693  0.7735  0.2156  0.4289
  190HFI     C2 2760   1.000   0.126   0.821 -0.3672 -0.2006  0.0970
  190HFI     F1 2761   0.870   0.157   0.824 -0.5513 -0.0708 -0.0320
  190HFI     F2 2762   1.056   0.190   0.926 -0.1792  0.1644  0.2600
  190HFI     F3 2763   1.011  -0.012   0.846 -0.5733  0.3055  0.3897
  190HFI     C3 2764   1.017   0.092   0.570  0.1769 -0.4777  0.6597
  190HFI     F4 2765   1.043  -0.037   0.567  0.2592 -0.4004  0.4439
  190HFI     F5 2766   1.074   0.147   0.458  0.4584  0.1129  0.5797
  190HFI     F6 2767   0.882   0.094   0.555 -0.2869  0.4018 -0.2578
  190HFI     H1 2768   1.240   0.076   0.706  0.9483 -0.4546  2.3644
  190HFI     H2 2769   1.031   0.275   0.682 -0.8298  0.1273  4.5760
  191HFI     O1 2770   3.383   2.736   2.793 -0.3881 -0.6641 -0.0971
  191HFI     C1 2771   3.485   2.802   2.873  0.2196 -0.1913 -0.3091
  191HFI     C2 2772   3.512   2.944   2.820  0.1359 -0.4831  0.1667
  191HFI     F1 2773   3.404   3.008   2.769  0.3302  0.5286 -0.4312
  191HFI     F2 2774   3.609   2.932   2.719 -0.0057  0.2499 -0.2427
  191HFI     F3 2775   3.568   3.029   2.909 -0.0201  0.0012  0.2436
  191HFI     C3 2776   3.619   2.717   2.884  0.7512  0.8441  0.6549
  191HFI     F4 2777   3.608   2.599   2.951  0.3525 -0.7861  0.3647
  191HFI     F5 2778   3.719   2.786   2.951  0.2478  0.7868  0.7947
  191HFI     F6 2779   3.659   2.684   2.754  0.5691  0.7372 -0.4949
  191HFI     H1 2780   3.406   2.739   2.699 -0.8339  1.2310 -0.1679
  191HFI     H2 2781   3.460   2.810   2.979  0.5467 -0.3712 -0.2162
  192HFI     O1 2782   3.062   2.674   0.853  0.4362 -0.5738  0.0475
  192HFI     C1 2783   2.916   2.679   0.875  0.6476 -0.1021  0.3576
  192HFI     C2 2784   2.860   2.807   0.803  0.0280  0.0963  0.5483
  192HFI     F1 2785   2.920   2.915   0.835  0.1878 -0.7359  0.3190
  192HFI     F2 2786   2.736   2.826   0.833 -0.3907  0.1101  0.9451
  192HFI     F3 2787   2.861   2.797   0.667  0.0689  0.2171 -0.4247
  192HFI     C3 2788   2.881   2.669   1.023 -0.1318  0.4160 -0.7535
  192HFI     F4 2789   2.751   2.625   1.042 -0.1662  0.0312 -0.1147
  192HFI     F5 2790   2.895   2.786   1.089 -0.3761 -0.1496  0.1580
  192HFI     F6 2791   2.955   2.579   1.086 -0.1401  0.0689 -0.1896
  192HFI     H1 2792   3.100   2.615   0.919  0.3339 -0.9053 -0.1890
  192HFI     H2 2793   2.867   2.591   0.833 -1.2112  0.6533  0.8655
  193HFI     O1 2794   3.000   0.041   3.460  0.5410  0.1284  0.4714
  193HFI     C1 2795   3.070  -0.003   3.334  0.5753 -0.3745 -0.3083
  193HFI     C2 2796   3.083   0.114   3.235 -0.4319  0.3467  0.7016
  193HFI     F1 2797   3.107   0.235   3.295  0.1504  0.0872 -0.0160
  193HFI     F2 2798   2.971   0.124   3.169 -0.1923  0.6147 -0.1941
  193HFI     F3 2799   3.179   0.096   3.138 -0.3883 -0.4306 -0.0037
  193HFI     C3 2800   3.009  -0.132   3.280  0.0203  0.2670  1.0145
  193HFI     F4 2801   2.882  -0.122   3.254  0.6901 -0.1180  0.0613
  193HFI     F5 2802   3.027  -0.236   3.372  0.0637 -0.0164  0.6556
  193HFI     F6 2803   3.067  -0.167   3.166  0.0105  0.2779  0.2378
  193HFI     H1 2804   2.909   0.050   3.425  0.8105 -0.3501 -0.3727
  193HFI     H2 2805   3.172  -0.034   3.361 -1.2675 -2.5823  4.6881
  194HFI     O1 2806   0.511   0.761   2.291 -0.4180  0.4168 -0.0461
  194HFI     C1 2807   0.467   0.890   2.328  1.1065  0.1447  0.0741
  194HFI     C2 2808   0.525   0.937   2.457 -0.0812 -0.1939 -0.8797
  194HFI     F1 2809   0.657   0.959   2.449  0.4133  0.4279 -0.4079
  194HFI     F2 2810   0.496   0.851   2.565  0.3306  0.0703  0.4164
  194HFI     F3 2811   0.469   1.059   2.489 -0.1134 -0.3823  0.3506
  194HFI     C3 2812   0.310   0.903   2.312  0.4786 -0.5010 -0.3295
  194HFI     F4 2813   0.248   0.887   2.429  0.3911 -0.1015 -0.0311
  194HFI     F5 2814   0.250   0.811   2.228 -0.2122  0.1427 -0.1398
  194HFI     F6 2815   0.281   1.029   2.265 -0.3314 -0.6979 -0.1444
  194HFI     H1 2816   0.505   0.705   2.370  2.5193 -0.0925 -0.0981
  194HFI     H2 2817   0.505   0.956   2.248  0.0260  1.9851  1.0458
  195HFI     O1 2818   0.760   1.825   0.325  0.1289  0.1647  0.1061
  195HFI     C1 2819   0.709   1.913   0.214  0.8031 -0.0390 -0.1756
  195HFI     C2 2820   0.560   1.914   0.203  0.2325  0.6689 -0.3392
  195HFI     F1 2821   0.510   1.787   0.189  0.1425  0.1076 -0.0930
  195HFI     F2 2822   0.530   1.995   0.099  0.3702  0.2712  0.0480
  195HFI     F3 2823   0.505   1.963   0.316  0.0493  0.2497  0.0205
  195HFI     C3 2824   0.788   1.900   0.081 -0.4552 -0.2221 -0.5483
  195HFI     F4 2825   0.741   1.794   0.019  0.1431 -0.2871 -0.1667
  195HFI     F5 2826   0.921   1.870   0.099 -0.1292 -0.1491  0.2475
  195HFI     F6 2827   0.777   2.010   0.007  0.1610  0.1552  0.1592
  195HFI     H1 2828   0.821   1.868   0.388  0.3201  2.0968 -1.3621
  195HFI     H2 2829   0.738   2.016   0.238  2.0211 -1.1318  3.3669
  196HFI     O1 2830   1.607   2.681   2.494 -0.1365 -0.1427 -0.0514
  196HFI     C1 2831   1.737   2.706   2.432 -0.1635  0.0446  0.4309
  196HFI     C2 2832   1.748   2.644   2.287 -0.0209  0.0694 -0.1174
  196HFI     F1 2833   1.839   2.710   2.213  0.2440 -0.2989  0.3801
  196HFI     F2 2834   1.626   2.658   2.226 -1.5945 -0.5303 -0.1388
  196HFI     F3 2835   1.779   2.513   2.293 -0.6739  0.4892  0.1995
  196HFI     C3 2836   1.855   2.674   2.522  0.5223 -0.3696 -1.2876
  196HFI     F4 2837   1.967   2.678   2.452 -0.3778  0.0725 -0.2304
  196HFI     F5 2838   1.845   2.554   2.582  0.0752 -0.4593  0.2431
  196HFI     F6 2839   1.859   2.768   2.622  0.1154 -0.0515  0.3568
  196HFI     H1 2840   1.595   2.584   2.502  0.8456 -0.4519 -1.9330
  196HFI     H2 2841   1.743   2.813   2.410  0.6755 -0.4049 -1.5717
  197HFI     O1 2842   0.696   1.162   3.280  0.0843  0.0689  0.5686
  197HFI     C1 2843   0.558   1.165   3.333 -0.4637 -0.4518  0.5620
  197HFI     C2 2844   0.548   1.173   3.490  0.0813 -0.2285  0.0028
  197HFI     F1 2845   0.603   1.292   3.528  0.4697  0.1967 -0.4148
  197HFI     F2 2846   0.619   1.070   3.542  0.3300 -0.6212 -0.4767
  197HFI     F3 2847   0.427   1.166   3.535  0.0482  0.3407  0.0924
  197HFI     C3 2848   0.471   1.058   3.262  0.0803  0.0218  0.0090
  197HFI     F4 2849   0.336   1.080   3.277 -0.3882  0.0109 -0.1697
  197HFI     F5 2850   0.482   0.940   3.322  0.1412  0.2864 -0.1459
  197HFI     F6 2851   0.504   1.034   3.125  0.1286  0.1353 -0.2443
  197HFI     H1 2852   0.724   1.069   3.289 -0.6776 -0.2014  0.2063
  197HFI     H2 2853   0.507   1.253   3.292  0.2925  0.0155  0.6142
  198HFI     O1 2854   3.299   3.306   0.880  0.5107  0.3405  0.1030
  198HFI     C1 2855   3.350   3.197   0.964 -0.2507 -0.2951  0.1668
  198HFI     C2 2856   3.492   3.227   1.019  0.4425  0.3837  0.1701
  198HFI     F1 2857   3.535   3.131   1.099 -0.0493 -0.5299  0.5680
  198HFI     F2 2858   3.498   3.334   1.097  0.1263 -0.1220 -0.0133
  198HFI     F3 2859   3.582   3.252   0.926 -0.3812  0.1292  0.1771
  198HFI     C3 2860   3.344   3.061   0.893  0.2884  0.9145  0.1886
  198HFI     F4 2861   3.219   3.037   0.876 -0.0686 -0.1458 -0.5954
  198HFI     F5 2862   3.389   2.952   0.962 -0.0595 -0.3188 -0.0086
  198HFI     F6 2863   3.407   3.059   0.769 -0.0273 -0.3079 -0.3965
  198HFI     H1 2864   3.283   3.381   0.941  1.6229 -0.4237  1.3681
  198HFI     H2 2865   3.282   3.195   1.050 -0.6792  1.4792 -0.1085
  199HFI     O1 2866   2.571   2.930   1.052 -0.7096 -0.2073 -0.0177
  199HFI     C1 2867   2.466   2.972   0.961  0.0589 -0.0393  0.4089
  199HFI     C2 2868   2.432   3.122   0.980 -0.1585 -0.4993  0.4385
  199HFI     F1 2869   2.333   3.162   0.897 -0.0267  0.7510 -0.2596
  199HFI     F2 2870   2.537   3.204   0.949 -0.0203  0.1277  0.4404
  199HFI     F3 2871   2.392   3.146   1.107  0.2684 -0.3535  0.0395
  199HFI     C3 2872   2.343   2.883   0.979  0.9599 -0.2520 -0.2941
  199HFI     F4 2873   2.380   2.759   1.001  0.2165  0.3028  0.2748
  199HFI     F5 2874   2.259   2.886   0.872 -0.2056 -0.3687 -0.0571
  199HFI     F6 2875   2.273   2.916   1.089 -0.2483  0.6622 -0.2915
  199HFI     H1 2876   2.552   2.839   1.080 -3.0708  0.5822  1.1334
  199HFI     H2 2877   2.513   2.958   0.862  0.2836  2.0644  0.2009
  200HFI     O1 2878   0.676   2.568   3.007  0.1340 -0.5046 -0.8271
  200HFI     C1 2879   0.680   2.428   3.051 -0.6064  0.3162 -0.3650
  200HFI     C2 2880   0.817   2.358   3.045 -0.2600 -0.4275  0.3618
  200HFI     F1 2881   0.878   2.366   2.926  0.1309 -0.6568 -0.0758
  200HFI     F2 2882   0.801   2.228   3.079  0.0563  1.0504  0.1227
  200HFI     F3 2883   0.910   2.399   3.140  0.3345 -0.0199  0.2614
  200HFI     C3 2884   0.567   2.345   2.979 -0.2831  0.1671  0.2071
  200HFI     F4 2885   0.471   2.434   2.934  0.1799 -0.3857  0.1275
  200HFI     F5 2886   0.507   2.258   3.062 -0.2002  0.0725  0.6450
  200HFI     F6 2887   0.607   2.268   2.874  0.4548  0.1091 -0.2366
  200HFI     H1 2888   0.661   2.573   2.911  1.8029 -1.3239 -1.1527
  200HFI     H2 2889   0.656   2.430   3.158  1.2275  1.2240  0.0481
  201HFI     O1 2890   1.618   3.193   0.690 -0.0585  0.3802 -0.1823
  201HFI     C1 2891   1.631   3.259   0.562 -0.4756 -0.3933  0.0662
  201HFI     C2 2892   1.519   3.370   0.541  0.9096  0.0257  1.0771
  201HFI     F1 2893   1.546   3.473   0.622  1.0443 -0.0767 -0.2585
  201HFI     F2 2894   1.394   3.334   0.556  0.1724  0.3457  0.9126
  201HFI     F3 2895   1.525   3.420   0.415  0.1056 -0.5189 -0.3114
  201HFI     C3 2896   1.639   3.158   0.448  0.3611  0.9007 -0.1615
  201HFI     F4 2897   1.747   3.078   0.456  0.0611  0.0175  0.0758
  201HFI     F5 2898   1.635   3.210   0.327 -0.2183 -0.4329 -0.1088
  201HFI     F6 2899   1.528   3.076   0.465  0.0294  0.2812 -0.4586
  201HFI     H1 2900   1.526   3.168   0.707 -0.3668  1.8928  0.4830
  201HFI     H2 2901   1.726   3.314   0.566  0.3612 -1.7788 -0.3802
  202HFI     O1 2902   1.809   0.425   1.001 -0.1841  0.1547 -0.6561
  202HFI     C1 2903   1.892   0.533   1.053  0.4508  0.0774  0.0159
  202HFI     C2 2904   1.862   0.669   0.983  0.1147 -0.1851  0.3964
  202HFI     F1 2905   1.874   0.660   0.848  0.2411  0.0280  0.6886
  202HFI     F2 2906   1.945   0.772   1.019 -0.4125  0.2728 -0.4017
  202HFI     F3 2907   1.740   0.712   1.012 -0.0507  0.6165 -0.0232
  202HFI     C3 2908   2.039   0.505   1.038  0.2435 -1.1336 -0.0542
  202HFI     F4 2909   2.062   0.385   1.084 -0.3285 -0.3727 -0.2763
  202HFI     F5 2910   2.119   0.591   1.101  0.1478  0.0781 -0.5315
  202HFI     F6 2911   2.077   0.502   0.906 -0.2983  0.1166  0.0169
  202HFI     H1 2912   1.849   0.340   1.027  0.9829  0.9309  0.1631
  202HFI     H2 2913   1.870   0.544   1.160 -1.0444 -0.3521 -0.2435
  203HFI     O1 2914   0.322   0.281   0.195  0.3765 -0.2612 -0.7706
  203HFI     C1 2915   0.177   0.274   0.243 -0.0967 -0.2571  0.2210
  203HFI     C2 2916   0.086   0.315   0.131 -0.0115 -0.0997  0.4918
  203HFI     F1 2917   0.124   0.426   0.074 -0.5043 -0.1127  0.6587
  203HFI     F2 2918  -0.041   0.327   0.178 -0.5010 -0.0252 -0.1378
  203HFI     F3 2919   0.074   0.223   0.037 -0.5967  0.4140  0.3419
  203HFI     C3 2920   0.159   0.353   0.376 -0.4338 -0.1117 -0.6939
  203HFI     F4 2921   0.042   0.320   0.434 -0.0665  0.0156  0.0693
  203HFI     F5 2922   0.157   0.485   0.360  0.0823 -0.4292 -0.3485
  203HFI     F6 2923   0.259   0.325   0.465  0.6594 -0.2759 -0.3536
  203HFI     H1 2924   0.335   0.375   0.174 -1.1138  0.2330  0.3608
  203HFI     H2 2925   0.153   0.171   0.272  0.4598 -0.4421  0.0191
  204HFI     O1 2926   0.501   1.479   3.120  0.1633 -0.1827 -0.2318
  204HFI     C1 2927   0.421   1.583   3.179 -0.0882  0.1359 -0.4142
  204HFI     C2 2928   0.351   1.543   3.310 -0.2948  0.4930 -0.0513
  204HFI     F1 2929   0.263   1.436   3.302  0.0835 -0.4251  0.0104
  204HFI     F2 2930   0.283   1.643   3.350 -0.5195  0.5683  0.7798
  204HFI     F3 2931   0.447   1.518   3.401  0.3462  0.6244 -0.7712
  204HFI     C3 2932   0.313   1.642   3.079  0.2931 -1.3908 -0.8027
  204HFI     F4 2933   0.370   1.665   2.955  0.2036 -0.6046  0.1780
  204HFI     F5 2934   0.286   1.765   3.124  0.5971 -0.3498 -0.4639
  204HFI     F6 2935   0.200   1.573   3.064  0.2486 -0.4651 -0.2292
  204HFI     H1 2936   0.569   1.527   3.069 -0.3985  0.9211  0.0400
  204HFI     H2 2937   0.488   1.666   3.205  0.0295 -1.0636  3.4685
  205HFI     O1 2938   0.627   1.588   0.364  0.0369 -0.2453  0.3104
  205HFI     C1 2939   0.561   1.605   0.495 -0.2485  0.5200  0.3372
  205HFI     C2 2940   0.662   1.592   0.605  0.8246  0.0087 -0.0293
  205HFI     F1 2941   0.614   1.631   0.729  0.0163 -0.2569 -0.0853
  205HFI     F2 2942   0.772   1.672   0.577  0.0927 -0.0179 -0.1488
  205HFI     F3 2943   0.710   1.464   0.607  0.0977 -0.6636  0.0557
  205HFI     C3 2944   0.430   1.523   0.519 -0.0800 -0.1429 -0.7013
  205HFI     F4 2945   0.338   1.562   0.433 -0.3050  0.0545  0.0375
  205HFI     F5 2946   0.388   1.547   0.643  0.3160  0.4656 -0.5401
  205HFI     F6 2947   0.455   1.393   0.497  0.4330  0.2337 -0.3561
  205HFI     H1 2948   0.706   1.644   0.359  1.4725 -2.2142  0.0643
  205HFI     H2 2949   0.520   1.706   0.511 -0.9619  0.3219 -0.2010
  206HFI     O1 2950   1.802   2.478   3.443  0.9798 -0.4683  0.0634
  206HFI     C1 2951   1.662   2.436   3.471  1.1375 -0.4048  0.1585
  206HFI     C2 2952   1.614   2.293   3.421 -1.1781 -0.2451  0.4016
  206HFI     F1 2953   1.708   2.200   3.443 -0.5992 -0.5208 -0.1076
  206HFI     F2 2954   1.591   2.282   3.288  0.0457 -0.0086 -0.1398
  206HFI     F3 2955   1.504   2.257   3.488 -0.5942 -0.0279 -0.2155
  206HFI     C3 2956   1.570   2.550   3.413  0.1680  0.4109  0.3271
  206HFI     F4 2957   1.549   2.531   3.280  0.0696 -0.3391 -0.0194
  206HFI     F5 2958   1.613   2.676   3.438  0.4752 -0.2620  0.5115
  206HFI     F6 2959   1.456   2.544   3.483  0.0972  0.2715  0.1202
  206HFI     H1 2960   1.828   2.539   3.514  0.6717  0.9378 -1.0017
  206HFI     H2 2961   1.640   2.436   3.578 -2.8790 -0.3022 -0.5903
  207HFI     O1 2962   0.655   3.292   2.389  0.0422 -0.3430  0.5278
  207HFI     C1 2963   0.699   3.190   2.290  0.4871  0.2661 -0.3156
  207HFI     C2 2964   0.606   3.066   2.287  0.2174  0.0765  0.7127
  207HFI     F1 2965   0.485   3.102   2.245  0.0157 -0.4258  0.0210
  207HFI     F2 2966   0.600   3.001   2.411  0.5985 -1.0418 -0.0838
  207HFI     F3 2967   0.652   2.981   2.201 -0.9673  0.4596 -0.1028
  207HFI     C3 2968   0.849   3.151   2.307 -0.4305 -0.0700  0.0542
  207HFI     F4 2969   0.901   3.063   2.223 -0.0937 -0.2635 -0.0125
  207HFI     F5 2970   0.859   3.095   2.427  0.0573 -0.1161  0.1952
  207HFI     F6 2971   0.928   3.258   2.304 -0.2326 -0.3729  0.0210
  207HFI     H1 2972   0.717   3.366   2.401  1.2989 -1.4177  0.8535
  207HFI     H2 2973   0.692   3.229   2.188 -2.0621  0.0776 -0.2446
  208HFI     O1 2974   0.465   2.595   0.580 -0.3210 -0.8382  0.4278
  208HFI     C1 2975   0.455   2.483   0.480  0.1288  0.2649  0.1700
  208HFI     C2 2976   0.336   2.387   0.496  0.1510  0.2583  0.2558
  208HFI     F1 2977   0.219   2.452   0.514  0.3142 -0.8830 -0.2733
  208HFI     F2 2978   0.355   2.301   0.601  0.4665 -0.5929  0.5635
  208HFI     F3 2979   0.327   2.310   0.384 -0.3492  0.0999 -0.2092
  208HFI     C3 2980   0.590   2.407   0.453  0.3187  0.7475 -0.1244
  208HFI     F4 2981   0.584   2.336   0.342 -0.2403 -0.2845 -0.1067
  208HFI     F5 2982   0.624   2.327   0.549 -0.2206  0.2117  0.1429
  208HFI     F6 2983   0.696   2.490   0.440  0.3475  0.0645  0.5314
  208HFI     H1 2984   0.542   2.586   0.638  0.4020  1.1852 -0.1954
  208HFI     H2 2985   0.434   2.528   0.382  1.2982  1.2177  0.3476
  209HFI     O1 2986   2.660   1.209   0.153  0.0791  0.5459  0.2708
  209HFI     C1 2987   2.778   1.125   0.102 -0.1944 -0.4441 -0.2650
  209HFI     C2 2988   2.768   1.094  -0.047  0.4438  0.0441  0.2293
  209HFI     F1 2989   2.655   1.024  -0.071  0.4798 -0.1122  0.4283
  209HFI     F2 2990   2.874   1.027  -0.089 -0.5291 -0.1016  0.2828
  209HFI     F3 2991   2.754   1.208  -0.115  0.4783 -0.2244 -0.2635
  209HFI     C3 2992   2.794   0.995   0.193 -0.8220 -0.2611 -0.2306
  209HFI     F4 2993   2.903   0.927   0.155  0.7151  0.5342  0.5120
  209HFI     F5 2994   2.691   0.909   0.181 -0.0211 -0.4491  0.3573
  209HFI     F6 2995   2.799   1.020   0.324 -0.9487 -0.1030 -0.2793
  209HFI     H1 2996   2.652   1.293   0.104  0.0896  0.9470  0.9512
  209HFI     H2 2997   2.867   1.188   0.110  0.6585 -1.7177  0.6595
  210HFI     O1 2998   2.642   2.050   2.548 -0.0833 -0.2134 -0.0217
  210HFI     C1 2999   2.664   1.930   2.470  0.7083  0.7085 -0.1099
  210HFI     C2 3000   2.571   1.908   2.345  0.0040 -0.0815 -0.2690
  210HFI     F1 3001   2.634   1.828   2.253 -0.9156  0.4178 -0.1554
  210HFI     F2 3002   2.546   2.022   2.278 -0.2491  0.1173 -0.1156
  210HFI     F3 3003   2.453   1.858   2.383 -0.1088  0.1375  0.3722
  210HFI     C3 3004   2.665   1.814   2.566  0.1058  0.0051 -0.0407
  210HFI     F4 3005   2.554   1.815   2.644 -0.2019 -0.1224 -0.2164
  210HFI     F5 3006   2.771   1.821   2.657  0.4636  0.0829  0.1146
  210HFI     F6 3007   2.668   1.692   2.506 -0.1367  0.1942  0.2449
  210HFI     H1 3008   2.601   2.121   2.497  1.1333 -0.0638 -0.8127
  210HFI     H2 3009   2.771   1.933   2.448  0.9160 -1.7763  0.4666
  211HFI     O1 3010   3.170   0.832   3.432 -0.2703  0.7249  0.1003
  211HFI     C1 3011   3.186   0.953   3.348 -0.0831 -0.0298  0.2456
  211HFI     C2 3012   3.044   0.997   3.298  0.8000 -0.3581 -0.7833
  211HFI     F1 3013   2.969   1.035   3.396 -0.1450 -0.4781 -0.0784
  211HFI     F2 3014   2.979   0.897   3.232  0.1933 -0.3044  0.6416
  211HFI     F3 3015   3.049   1.102   3.213  0.3465  0.8145  0.1777
  211HFI     C3 3016   3.284   0.928   3.233  0.2822  0.4223  0.1542
  211HFI     F4 3017   3.218   0.877   3.128  0.2779  0.3810  0.3294
  211HFI     F5 3018   3.382   0.834   3.263  0.4341 -0.2463  0.1372
  211HFI     F6 3019   3.337   1.046   3.192  0.3184  1.0538  0.1650
  211HFI     H1 3020   3.154   0.757   3.372  0.5272  0.0453  0.7232
  211HFI     H2 3021   3.220   1.029   3.420  0.7025  0.1767 -0.3372
  212HFI     O1 3022   1.588   2.699   3.790  0.6352  0.0489  0.0692
  212HFI     C1 3023   1.493   2.677   3.901  0.8471  0.2719  0.2709
  212HFI     C2 3024   1.367   2.585   3.864  0.6537  0.4285 -0.0348
  212HFI     F1 3025   1.414   2.471   3.803 -0.1233  0.0147 -0.4375
  212HFI     F2 3026   1.287   2.644   3.785 -0.2234  0.1800  0.3212
  212HFI     F3 3027   1.296   2.549   3.976  0.3017 -0.0663 -0.1136
  212HFI     C3 3028   1.449   2.813   3.968  0.4612  0.7728 -0.4094
  212HFI     F4 3029   1.387   2.793   4.095  0.7562  0.1227  0.5769
  212HFI     F5 3030   1.370   2.887   3.891  0.2256  0.5352  0.0805
  212HFI     F6 3031   1.562   2.881   3.999 -0.0335 -0.1383 -0.0066
  212HFI     H1 3032   1.572   2.782   3.741 -1.8480  0.7619  1.9927
  212HFI     H2 3033   1.550   2.615   3.972 -0.5530 -0.4430  0.7972
  213HFI     O1 3034   3.235   0.177   2.200  0.0221 -0.0361 -0.2195
  213HFI     C1 3035   3.133   0.157   2.307 -0.3600  0.3583 -0.0350
  213HFI     C2 3036   3.064   0.022   2.293 -0.7039  1.2573  0.0256
  213HFI     F1 3037   3.013  -0.012   2.415  0.6078  0.0134  0.1048
  213HFI     F2 3038   3.161  -0.079   2.272  0.1764 -0.0857  0.1428
  213HFI     F3 3039   2.961   0.005   2.204 -0.0451  0.2486  0.1616
  213HFI     C3 3040   3.030   0.274   2.329 -0.4897  0.3388  0.2716
  213HFI     F4 3041   2.991   0.267   2.452 -0.2810 -0.0255 -0.1504
  213HFI     F5 3042   2.931   0.280   2.238 -0.1713  0.5014 -0.4717
  213HFI     F6 3043   3.106   0.386   2.323  0.4391 -0.4899  0.2614
  213HFI     H1 3044   3.322   0.180   2.244 -0.7286 -1.6683  1.4669
  213HFI     H2 3045   3.189   0.163   2.401 -0.6489 -0.2321  0.1780
  214HFI     O1 3046   2.829   0.430   0.166 -0.7742 -0.2337  0.3703
  214HFI     C1 3047   2.906   0.416   0.045  0.5615 -0.0262  0.0610
  214HFI     C2 3048   2.847   0.497  -0.077  0.4564  1.0059 -0.0941
  214HFI     F1 3049   2.729   0.445  -0.116  0.4856 -0.0710  0.1698
  214HFI     F2 3050   2.930   0.496  -0.183  0.7941  0.1460  0.2348
  214HFI     F3 3051   2.829   0.624  -0.044  0.1293  0.4960  0.4100
  214HFI     C3 3052   2.949   0.268   0.004  0.1435  0.3521 -0.0755
  214HFI     F4 3053   2.975   0.195   0.113  0.4160 -0.5786 -0.0670
  214HFI     F5 3054   3.054   0.262  -0.074  0.1041  0.0126 -0.2829
  214HFI     F6 3055   2.841   0.202  -0.055  0.1089  0.0362  0.0320
  214HFI     H1 3056   2.822   0.338   0.198  0.7456 -1.0172 -1.4374
  214HFI     H2 3057   3.009   0.448   0.063  1.3164  0.3459 -4.4913
  215HFI     O1 3058   0.746   1.736   2.718  0.8620 -0.4272 -0.4187
  215HFI     C1 3059   0.801   1.800   2.837  0.2285  0.0018  0.4281
  215HFI     C2 3060   0.819   1.698   2.948  0.0053 -0.6000 -0.1789
  215HFI     F1 3061   0.699   1.671   2.999 -0.1393 -0.4397 -0.1981
  215HFI     F2 3062   0.905   1.738   3.044 -0.3722 -0.2744  0.0151
  215HFI     F3 3063   0.876   1.589   2.897 -0.3499 -0.2886  0.5545
  215HFI     C3 3064   0.732   1.928   2.888 -0.6487 -0.0002  0.0879
  215HFI     F4 3065   0.607   1.908   2.936 -0.1721 -0.2024  0.5321
  215HFI     F5 3066   0.730   2.020   2.787 -0.3191 -0.0612  0.2972
  215HFI     F6 3067   0.799   1.979   2.989 -0.0483 -0.3443  0.5316
  215HFI     H1 3068   0.689   1.794   2.665 -0.8273 -1.2282  0.4723
  215HFI     H2 3069   0.902   1.834   2.814  0.3084  0.0815  0.8810
  216HFI     O1 3070   2.619   1.503   0.035  0.2867 -0.2749  0.2459
  216HFI     C1 3071   2.483   1.529  -0.019 -0.6680 -0.3894  0.5566
  216HFI     C2 3072   2.469   1.481  -0.168 -0.2202  0.2654 -0.4094
  216HFI     F1 3073   2.481   1.346  -0.179  0.5625  0.0139 -0.0572
  216HFI     F2 3074   2.567   1.535  -0.249 -0.2071  0.0635 -0.0008
  216HFI     F3 3075   2.347   1.505  -0.221 -0.0069  0.2187 -0.4129
  216HFI     C3 3076   2.449   1.674  -0.001 -0.2486  0.3205  0.1665
  216HFI     F4 3077   2.318   1.704  -0.036  0.5240  0.4147 -0.2494
  216HFI     F5 3078   2.539   1.748  -0.074  0.1500  0.5108 -0.3242
  216HFI     F6 3079   2.458   1.710   0.136 -0.5608 -0.5189 -0.1100
  216HFI     H1 3080   2.671   1.585   0.023  2.5279 -1.5725  0.7394
  216HFI     H2 3081   2.410   1.471   0.039  0.7891 -1.1971  1.6113
  217HFI     O1 3082   2.929   3.081   2.444 -0.7431  0.5873  0.6146
  217HFI     C1 3083   2.835   3.052   2.336 -0.7738 -0.8902 -0.4068
  217HFI     C2 3084   2.711   3.138   2.343  0.8559 -0.4027 -0.0989
  217HFI     F1 3085   2.627   3.095   2.437  0.3818 -0.2165 -0.3886
  217HFI     F2 3086   2.639   3.131   2.226 -0.4796  0.1966 -0.2336
  217HFI     F3 3087   2.732   3.272   2.363 -0.0396  0.1518 -0.4341
  217HFI     C3 3088   2.802   2.897   2.331  0.6666 -0.1392 -0.1398
  217HFI     F4 3089   2.790   2.836   2.446 -0.4230 -0.3192  0.0567
  217HFI     F5 3090   2.906   2.840   2.268 -0.1677  0.3951  0.1154
  217HFI     F6 3091   2.692   2.869   2.255 -0.0912  0.0579 -0.3674
  217HFI     H1 3092   2.893   3.065   2.534 -2.4007 -2.2067 -0.4630
  217HFI     H2 3093   2.874   3.076   2.236 -1.8743  2.7470 -0.0255
  218HFI     O1 3094   0.579   3.089   3.415 -0.6286 -0.7362  0.8124
  218HFI     C1 3095   0.615   3.013   3.294 -0.2894 -0.4717  0.0927
  218HFI     C2 3096   0.613   2.857   3.320 -0.6474  0.2483 -0.2679
  218HFI     F1 3097   0.716   2.810   3.391  0.7910 -0.5638  0.0279
  218HFI     F2 3098   0.607   2.781   3.210 -0.3750 -0.6334 -0.4749
  218HFI     F3 3099   0.509   2.823   3.389  0.3349  0.4749 -0.6703
  218HFI     C3 3100   0.759   3.052   3.250 -0.0596  0.3458 -0.1725
  218HFI     F4 3101   0.846   3.066   3.351  0.2734  0.2561  0.2802
  218HFI     F5 3102   0.756   3.161   3.179 -0.3197 -1.0036  0.9530
  218HFI     F6 3103   0.820   2.969   3.165 -0.1126  0.1730 -0.2358
  218HFI     H1 3104   0.609   3.035   3.490  0.6241 -1.4546 -0.1992
  218HFI     H2 3105   0.550   3.038   3.210  0.2673 -2.0811 -0.8417
  219HFI     O1 3106   1.510   1.549   3.672 -0.0372 -0.2683 -0.4568
  219HFI     C1 3107   1.366   1.585   3.703 -0.0980  0.4390 -0.6505
  219HFI     C2 3108   1.294   1.453   3.743  0.2281 -0.2550  0.0732
  219HFI     F1 3109   1.335   1.409   3.862 -0.5126  0.3920  0.1324
  219HFI     F2 3110   1.314   1.350   3.658  0.5913 -0.0409  0.0514
  219HFI     F3 3111   1.157   1.466   3.754 -0.2190  0.0226 -0.1289
  219HFI     C3 3112   1.305   1.668   3.587  0.0995 -0.3837  1.2254
  219HFI     F4 3113   1.397   1.764   3.561 -0.2582  0.0820  0.1268
  219HFI     F5 3114   1.191   1.736   3.620 -0.2248 -0.1139  0.5539
  219HFI     F6 3115   1.292   1.596   3.475 -0.1707 -0.5603  0.1424
  219HFI     H1 3116   1.522   1.547   3.576 -0.4839  1.9975 -0.5800
  219HFI     H2 3117   1.359   1.642   3.796 -0.7381 -3.5902  1.9219
  220HFI     O1 3118   2.515   2.096   3.214  0.3804  0.0982  0.2985
  220HFI     C1 3119   2.544   2.096   3.070 -0.4208  1.1283  0.3079
  220HFI     C2 3120   2.639   1.983   3.026  0.1776  1.0506 -0.5610
  220HFI     F1 3121   2.603   1.864   3.097  0.0826  0.4964  0.3530
  220HFI     F2 3122   2.766   2.009   3.062 -0.0425  0.1472  0.0819
  220HFI     F3 3123   2.639   1.962   2.895 -0.0128  0.2419 -0.1633
  220HFI     C3 3124   2.589   2.236   3.021 -0.5195  0.6364  0.0614
  220HFI     F4 3125   2.697   2.272   3.095 -0.4740  0.2813 -0.3019
  220HFI     F5 3126   2.503   2.334   3.047 -0.2205  0.4688  0.5711
  220HFI     F6 3127   2.621   2.248   2.891 -0.7693  0.5058 -0.0074
  220HFI     H1 3128   2.592   2.110   3.271  0.7658 -2.5626  0.4844
  220HFI     H2 3129   2.453   2.072   3.014 -1.0032  1.0588  1.2668
  221HFI     O1 3130   3.388   0.425   2.252 -0.0376  0.4913 -0.1608
  221HFI     C1 3131   3.453   0.510   2.340 -0.6637 -0.4360  0.9125
  221HFI     C2 3132   3.600   0.481   2.343 -0.0927 -0.0198 -0.6501
  221HFI     F1 3133   3.654   0.467   2.218  0.1643  0.3145 -0.3041
  221HFI     F2 3134   3.613   0.366   2.403  0.8843  0.4826  0.2017
  221HFI     F3 3135   3.679   0.572   2.411 -0.9989 -0.1993 -0.4163
  221HFI     C3 3136   3.377   0.526   2.479 -0.2193 -0.8001 -0.5513
  221HFI     F4 3137   3.255   0.592   2.462 -0.4518 -0.0541  0.3224
  221HFI     F5 3138   3.455   0.592   2.573  0.3856  0.1486  0.0463
  221HFI     F6 3139   3.346   0.411   2.537 -0.0364  0.1075  0.4510
  221HFI     H1 3140   3.296   0.449   2.234  0.0124  2.0351  1.5361
  221HFI     H2 3141   3.451   0.610   2.294  0.5306 -0.6969  0.2723
  222HFI     O1 3142   0.448   0.051   2.464  0.6418  0.2821  0.2010
  222HFI     C1 3143   0.319   0.054   2.400  0.4412 -0.0475  0.5629
  222HFI     C2 3144   0.215   0.029   2.509  0.3494 -0.5619  0.2192
  222HFI     F1 3145   0.090   0.023   2.458  0.0822 -0.6148 -0.2073
  222HFI     F2 3146   0.228   0.140   2.591  0.2007  0.2769  0.3322
  222HFI     F3 3147   0.244  -0.078   2.590  0.0843  0.1105  0.0824
  222HFI     C3 3148   0.307  -0.049   2.281 -0.0277 -0.6196 -0.8491
  222HFI     F4 3149   0.292  -0.176   2.323 -0.3849  0.0799  0.2356
  222HFI     F5 3150   0.417  -0.039   2.198 -0.3682 -0.7427 -0.1628
  222HFI     F6 3151   0.194  -0.026   2.212  0.0731 -0.1316 -0.5068
  222HFI     H1 3152   0.509  -0.015   2.426  1.3897  0.8585  0.3780
  222HFI     H2 3153   0.301   0.150   2.349 -3.5712 -0.9174  0.1928
  223HFI     O1 3154   0.415   1.497   0.124 -0.5061 -0.4682  0.4793
  223HFI     C1 3155   0.348   1.487  -0.003 -0.5885  0.1519 -0.1347
  223HFI     C2 3156   0.274   1.621  -0.038 -0.0319  0.0024 -0.0711
  223HFI     F1 3157   0.220   1.619  -0.156  0.6389 -0.1875  0.2894
  223HFI     F2 3158   0.363   1.727  -0.033 -0.0751  0.1869  0.3119
  223HFI     F3 3159   0.174   1.627   0.053  0.1035  0.0909 -0.3208
  223HFI     C3 3160   0.251   1.365   0.002  0.3092 -0.2679  0.1689
  223HFI     F4 3161   0.178   1.357  -0.108  0.0686 -0.1598 -0.6303
  223HFI     F5 3162   0.156   1.372   0.103  0.0013 -0.0077 -0.5119
  223HFI     F6 3163   0.328   1.255   0.018 -0.0953  0.1879 -0.1692
  223HFI     H1 3164   0.410   1.589   0.155  1.9345 -0.0932 -0.1075
  223HFI     H2 3165   0.427   1.465  -0.076  0.8609  3.2770  0.4148
  224HFI     O1 3166   2.513   1.602   3.001 -0.1619  0.2753  0.8216
  224HFI     C1 3167   2.612   1.494   3.005  0.6709 -0.5486 -1.0039
  224HFI     C2 3168   2.670   1.458   2.866  0.3673  0.4370  0.7728
  224HFI     F1 3169   2.728   1.565   2.807  0.2047  0.2277  0.3788
  224HFI     F2 3170   2.562   1.413   2.796 -0.1020 -0.0058 -0.8817
  224HFI     F3 3171   2.756   1.350   2.863  0.1001 -0.3074 -0.3613
  224HFI     C3 3172   2.560   1.366   3.075  0.2875  0.6609 -0.3870
  224HFI     F4 3173   2.532   1.402   3.202  0.6933  0.2733  0.4468
  224HFI     F5 3174   2.645   1.268   3.089 -0.2841  0.2404  0.1239
  224HFI     F6 3175   2.444   1.320   3.014  0.3296 -0.3289  0.3422
  224HFI     H1 3176   2.498   1.640   3.090  2.9774 -1.9476  2.4188
  224HFI     H2 3177   2.699   1.522   3.066 -0.5127 -1.1585  0.9938
  225HFI     O1 3178   2.567   3.233   0.400  0.0282  0.3766  0.1686
  225HFI     C1 3179   2.652   3.132   0.466  0.4166  0.0467  0.5741
  225HFI     C2 3180   2.650   2.992   0.383  0.3513  0.5486 -0.0451
  225HFI     F1 3181   2.708   3.020   0.268 -0.4810 -0.4153 -0.1613
  225HFI     F2 3182   2.528   2.947   0.360  0.5989  0.0530 -0.2991
  225HFI     F3 3183   2.726   2.901   0.452  0.5281  0.1998 -0.0267
  225HFI     C3 3184   2.617   3.128   0.616  0.6941  0.2930 -0.4445
  225HFI     F4 3185   2.721   3.075   0.685  0.0754 -0.1106 -0.8028
  225HFI     F5 3186   2.508   3.048   0.645  0.4279  0.3221 -0.6534
  225HFI     F6 3187   2.595   3.256   0.661 -0.3090 -0.0255  0.0873
  225HFI     H1 3188   2.566   3.315   0.453  0.0232 -0.2006  1.0715
  225HFI     H2 3189   2.753   3.172   0.458  0.5935 -0.5036  0.0206
  226HFI     O1 3190   3.113   1.076   2.231  0.3947 -0.5043 -0.2678
  226HFI     C1 3191   3.225   1.071   2.321  0.1732  0.0357 -0.2445
  226HFI     C2 3192   3.343   1.169   2.283  0.0522  0.1736  0.2621
  226HFI     F1 3193   3.415   1.190   2.398  0.3494 -0.2775  0.0400
  226HFI     F2 3194   3.282   1.285   2.244 -0.3420  0.2887  0.3138
  226HFI     F3 3195   3.422   1.129   2.183  0.6387 -0.2206  0.6051
  226HFI     C3 3196   3.274   0.927   2.349 -0.4141  0.2040 -0.3850
  226HFI     F4 3197   3.339   0.865   2.244 -0.2092  0.3081 -0.5895
  226HFI     F5 3198   3.171   0.849   2.382  0.6191  0.0792 -0.1455
  226HFI     F6 3199   3.356   0.928   2.453  0.2779 -0.2950 -0.3770
  226HFI     H1 3200   3.080   1.168   2.237  0.2585 -0.6015  0.5632
  226HFI     H2 3201   3.189   1.098   2.421  1.5260  0.4927  0.1269
  227HFI     O1 3202   3.070   2.618   2.456  0.2779 -0.1266 -0.4055
  227HFI     C1 3203   3.138   2.500   2.435  1.0024 -0.3490 -0.5940
  227HFI     C2 3204   3.245   2.482   2.538 -0.0782 -0.2575 -0.4986
  227HFI     F1 3205   3.202   2.476   2.663  0.7299 -0.2175  0.0929
  227HFI     F2 3206   3.348   2.572   2.535 -0.0649 -0.2991  0.5320
  227HFI     F3 3207   3.303   2.359   2.510 -0.2635 -0.3971  0.3363
  227HFI     C3 3208   3.195   2.482   2.292 -0.0820 -0.2331  0.0758
  227HFI     F4 3209   3.308   2.556   2.268 -0.3233 -0.0570 -0.2924
  227HFI     F5 3210   3.109   2.529   2.202  0.1745  0.4841 -0.5618
  227HFI     F6 3211   3.215   2.354   2.261  0.4521 -0.1523  0.3473
  227HFI     H1 3212   3.040   2.654   2.370  0.4647 -1.2409 -0.9403
  227HFI     H2 3213   3.074   2.412   2.452 -1.1304  1.1450 -0.5731
  228HFI     O1 3214   2.271   1.879   3.469  0.2127  0.1652  0.5872
  228HFI     C1 3215   2.207   1.772   3.389  0.0197  0.5491 -0.0537
  228HFI     C2 3216   2.294   1.740   3.262 -0.2457 -0.0024  0.8108
  228HFI     F1 3217   2.420   1.720   3.291 -0.1511  0.0086  0.3120
  228HFI     F2 3218   2.294   1.847   3.178 -0.4233  0.0798  0.1009
  228HFI     F3 3219   2.244   1.636   3.188 -0.3013 -0.2852 -0.4892
  228HFI     C3 3220   2.063   1.806   3.366 -0.4210 -0.1910 -0.4507
  228HFI     F4 3221   2.002   1.831   3.482 -0.1510 -0.1129  0.1710
  228HFI     F5 3222   1.988   1.707   3.309  0.2753 -0.6709 -0.3115
  228HFI     F6 3223   2.051   1.917   3.286 -0.6208  0.1755 -0.3437
  228HFI     H1 3224   2.330   1.931   3.412 -0.8600  1.8354  0.9865
  228HFI     H2 3225   2.205   1.681   3.450  3.1374  0.2107 -0.3648
   3.40320   3.43847   3.80000
