DMF comparator n4
 4173
    1GR      C1    1   0.000   0.000   1.900  0.0000  0.0000  0.0000
    1GR      C2    2   0.142   0.000   1.900  0.0000  0.0000  0.0000
    1GR      C3    3   0.213   0.123   1.900  0.0000  0.0000  0.0000
    1GR      C4    4   0.354   0.123   1.900  0.0000  0.0000  0.0000
    1GR      C5    5   0.000   0.246   1.900  0.0000  0.0000  0.0000
    1GR      C6    6   0.142   0.246   1.900  0.0000  0.0000  0.0000
    1GR      C7    7   0.213   0.368   1.900  0.0000  0.0000  0.0000
    1GR      C8    8   0.354   0.368   1.900  0.0000  0.0000  0.0000
    1GR      C9    9   0.000   0.491   1.900  0.0000  0.0000  0.0000
    1GR     C10   10   0.142   0.491   1.900  0.0000  0.0000  0.0000
    1GR     C11   11   0.213   0.614   1.900  0.0000  0.0000  0.0000
    1GR     C12   12   0.354   0.614   1.900  0.0000  0.0000  0.0000
    1GR     C13   13   0.000   0.737   1.900  0.0000  0.0000  0.0000
    1GR     C14   14   0.142   0.737   1.900  0.0000  0.0000  0.0000
    1GR     C15   15   0.213   0.860   1.900  0.0000  0.0000  0.0000
    1GR     C16   16   0.354   0.860   1.900  0.0000  0.0000  0.0000
    1GR     C17   17   0.000   0.982   1.900  0.0000  0.0000  0.0000
    1GR     C18   18   0.142   0.982   1.900  0.0000  0.0000  0.0000
    1GR     C19   19   0.213   1.105   1.900  0.0000  0.0000  0.0000
    1GR     C20   20   0.354   1.105   1.900  0.0000  0.0000  0.0000
    1GR     C21   21   0.000   1.228   1.900  0.0000  0.0000  0.0000
    1GR     C22   22   0.142   1.228   1.900  0.0000  0.0000  0.0000
    1GR     C23   23   0.213   1.351   1.900  0.0000  0.0000  0.0000
    1GR     C24   24   0.354   1.351   1.900  0.0000  0.0000  0.0000
    1GR     C25   25   0.000   1.474   1.900  0.0000  0.0000  0.0000
    1GR     C26   26   0.142   1.474   1.900  0.0000  0.0000  0.0000
    1GR     C27   27   0.213   1.596   1.900  0.0000  0.0000  0.0000
    1GR     C28   28   0.354   1.596   1.900  0.0000  0.0000  0.0000
    1GR     C29   29   0.000   1.719   1.900  0.0000  0.0000  0.0000
    1GR     C30   30   0.142   1.719   1.900  0.0000  0.0000  0.0000
    1GR     C31   31   0.213   1.842   1.900  0.0000  0.0000  0.0000
    1GR     C32   32   0.354   1.842   1.900  0.0000  0.0000  0.0000
    1GR     C33   33   0.000   1.965   1.900  0.0000  0.0000  0.0000
    1GR     C34   34   0.142   1.965   1.900  0.0000  0.0000  0.0000
    1GR     C35   35   0.213   2.088   1.900  0.0000  0.0000  0.0000
    1GR     C36   36   0.354   2.088   1.900  0.0000  0.0000  0.0000
    1GR     C37   37   0.000   2.210   1.900  0.0000  0.0000  0.0000
    1GR     C38   38   0.142   2.210   1.900  0.0000  0.0000  0.0000
    1GR     C39   39   0.213   2.333   1.900  0.0000  0.0000  0.0000
    1GR     C40   40   0.354   2.333   1.900  0.0000  0.0000  0.0000
    1GR     C41   41   0.000   2.456   1.900  0.0000  0.0000  0.0000
    1GR     C42   42   0.142   2.456   1.900  0.0000  0.0000  0.0000
    1GR     C43   43   0.213   2.579   1.900  0.0000  0.0000  0.0000
    1GR     C44   44   0.354   2.579   1.900  0.0000  0.0000  0.0000
    1GR     C45   45   0.000   2.702   1.900  0.0000  0.0000  0.0000
    1GR     C46   46   0.142   2.702   1.900  0.0000  0.0000  0.0000
    1GR     C47   47   0.213   2.824   1.900  0.0000  0.0000  0.0000
    1GR     C48   48   0.354   2.824   1.900  0.0000  0.0000  0.0000
    1GR     C49   49   0.000   2.947   1.900  0.0000  0.0000  0.0000
    1GR     C50   50   0.142   2.947   1.900  0.0000  0.0000  0.0000
    1GR     C51   51   0.213   3.070   1.900  0.0000  0.0000  0.0000
    1GR     C52   52   0.354   3.070   1.900  0.0000  0.0000  0.0000
    1GR     C53   53   0.000   3.193   1.900  0.0000  0.0000  0.0000
    1GR     C54   54   0.142   3.193   1.900  0.0000  0.0000  0.0000
    1GR     C55   55   0.213   3.316   1.900  0.0000  0.0000  0.0000
    1GR     C56   56   0.354   3.316   1.900  0.0000  0.0000  0.0000
    1GR     C57   57   0.425   0.000   1.900  0.0000  0.0000  0.0000
    1GR     C58   58   0.567   0.000   1.900  0.0000  0.0000  0.0000
    1GR     C59   59   0.638   0.123   1.900  0.0000  0.0000  0.0000
    1GR     C60   60   0.780   0.123   1.900  0.0000  0.0000  0.0000
    1GR     C61   61   0.425   0.246   1.900  0.0000  0.0000  0.0000
    1GR     C62   62   0.567   0.246   1.900  0.0000  0.0000  0.0000
    1GR     C63   63   0.638   0.368   1.900  0.0000  0.0000  0.0000
    1GR     C64   64   0.780   0.368   1.900  0.0000  0.0000  0.0000
    1GR     C65   65   0.425   0.491   1.900  0.0000  0.0000  0.0000
    1GR     C66   66   0.567   0.491   1.900  0.0000  0.0000  0.0000
    1GR     C67   67   0.638   0.614   1.900  0.0000  0.0000  0.0000
    1GR     C68   68   0.780   0.614   1.900  0.0000  0.0000  0.0000
    1GR     C69   69   0.425   0.737   1.900  0.0000  0.0000  0.0000
    1GR     C70   70   0.567   0.737   1.900  0.0000  0.0000  0.0000
    1GR     C71   71   0.638   0.860   1.900  0.0000  0.0000  0.0000
    1GR     C72   72   0.780   0.860   1.900  0.0000  0.0000  0.0000
    1GR     C73   73   0.425   0.982   1.900  0.0000  0.0000  0.0000
    1GR     C74   74   0.567   0.982   1.900  0.0000  0.0000  0.0000
    1GR     C75   75   0.638   1.105   1.900  0.0000  0.0000  0.0000
    1GR     C76   76   0.780   1.105   1.900  0.0000  0.0000  0.0000
    1GR     C77   77   0.425   1.228   1.900  0.0000  0.0000  0.0000
    1GR     C78   78   0.567   1.228   1.900  0.0000  0.0000  0.0000
    1GR     C79   79   0.638   1.351   1.900  0.0000  0.0000  0.0000
    1GR     C80   80   0.780   1.351   1.900  0.0000  0.0000  0.0000
    1GR     C81   81   0.425   1.474   1.900  0.0000  0.0000  0.0000
    1GR     C82   82   0.567   1.474   1.900  0.0000  0.0000  0.0000
    1GR     C83   83   0.638   1.596   1.900  0.0000  0.0000  0.0000
    1GR     C84   84   0.780   1.596   1.900  0.0000  0.0000  0.0000
    1GR     C85   85   0.425   1.719   1.900  0.0000  0.0000  0.0000
    1GR     C86   86   0.567   1.719   1.900  0.0000  0.0000  0.0000
    1GR     C87   87   0.638   1.842   1.900  0.0000  0.0000  0.0000
    1GR     C88   88   0.780   1.842   1.900  0.0000  0.0000  0.0000
    1GR     C89   89   0.425   1.965   1.900  0.0000  0.0000  0.0000
    1GR     C90   90   0.567   1.965   1.900  0.0000  0.0000  0.0000
    1GR     C91   91   0.638   2.088   1.900  0.0000  0.0000  0.0000
    1GR     C92   92   0.780   2.088   1.900  0.0000  0.0000  0.0000
    1GR     C93   93   0.425   2.210   1.900  0.0000  0.0000  0.0000
    1GR     C94   94   0.567   2.210   1.900  0.0000  0.0000  0.0000
    1GR     C95   95   0.638   2.333   1.900  0.0000  0.0000  0.0000
    1GR     C96   96   0.780   2.333   1.900  0.0000  0.0000  0.0000
    1GR     C97   97   0.425   2.456   1.900  0.0000  0.0000  0.0000
    1GR     C98   98   0.567   2.456   1.900  0.0000  0.0000  0.0000
    1GR     C99   99   0.638   2.579   1.900  0.0000  0.0000  0.0000
    1GR    C100  100   0.780   2.579   1.900  0.0000  0.0000  0.0000
    1GR    C101  101   0.425   2.702   1.900  0.0000  0.0000  0.0000
    1GR    C102  102   0.567   2.702   1.900  0.0000  0.0000  0.0000
    1GR    C103  103   0.638   2.824   1.900  0.0000  0.0000  0.0000
    1GR    C104  104   0.780   2.824   1.900  0.0000  0.0000  0.0000
    1GR    C105  105   0.425   2.947   1.900  0.0000  0.0000  0.0000
    1GR    C106  106   0.567   2.947   1.900  0.0000  0.0000  0.0000
    1GR    C107  107   0.638   3.070   1.900  0.0000  0.0000  0.0000
    1GR    C108  108   0.780   3.070   1.900  0.0000  0.0000  0.0000
    1GR    C109  109   0.425   3.193   1.900  0.0000  0.0000  0.0000
    1GR    C110  110   0.567   3.193   1.900  0.0000  0.0000  0.0000
    1GR    C111  111   0.638   3.316   1.900  0.0000  0.0000  0.0000
    1GR    C112  112   0.780   3.316   1.900  0.0000  0.0000  0.0000
    1GR    C113  113   0.851  -0.000   1.900  0.0000  0.0000  0.0000
    1GR    C114  114   0.993   0.000   1.900  0.0000  0.0000  0.0000
    1GR    C115  115   1.064   0.123   1.900  0.0000  0.0000  0.0000
    1GR    C116  116   1.205   0.123   1.900  0.0000  0.0000  0.0000
    1GR    C117  117   0.851   0.246   1.900  0.0000  0.0000  0.0000
    1GR    C118  118   0.993   0.246   1.900  0.0000  0.0000  0.0000
    1GR    C119  119   1.064   0.368   1.900  0.0000  0.0000  0.0000
    1GR    C120  120   1.205   0.368   1.900  0.0000  0.0000  0.0000
    1GR    C121  121   0.851   0.491   1.900  0.0000  0.0000  0.0000
    1GR    C122  122   0.993   0.491   1.900  0.0000  0.0000  0.0000
    1GR    C123  123   1.064   0.614   1.900  0.0000  0.0000  0.0000
    1GR    C124  124   1.205   0.614   1.900  0.0000  0.0000  0.0000
    1GR    C125  125   0.851   0.737   1.900  0.0000  0.0000  0.0000
    1GR    C126  126   0.993   0.737   1.900  0.0000  0.0000  0.0000
    1GR    C127  127   1.064   0.860   1.900  0.0000  0.0000  0.0000
    1GR    C128  128   1.205   0.860   1.900  0.0000  0.0000  0.0000
    1GR    C129  129   0.851   0.982   1.900  0.0000  0.0000  0.0000
    1GR    C130  130   0.993   0.982   1.900  0.0000  0.0000  0.0000
    1GR    C131  131   1.064   1.105   1.900  0.0000  0.0000  0.0000
    1GR    C132  132   1.205   1.105   1.900  0.0000  0.0000  0.0000
    1GR    C133  133   0.851   1.228   1.900  0.0000  0.0000  0.0000
    1GR    C134  134   0.993   1.228   1.900  0.0000  0.0000  0.0000
    1GR    C135  135   1.064   1.351   1.900  0.0000  0.0000  0.0000
    1GR    C136  136   1.205   1.351   1.900  0.0000  0.0000  0.0000
    1GR    C137  137   0.851   1.474   1.900  0.0000  0.0000  0.0000
    1GR    C138  138   0.993   1.474   1.900  0.0000  0.0000  0.0000
    1GR    C139  139   1.064   1.596   1.900  0.0000  0.0000  0.0000
    1GR    C140  140   1.205   1.596   1.900  0.0000  0.0000  0.0000
    1GR    C141  141   0.851   1.719   1.900  0.0000  0.0000  0.0000
    1GR    C142  142   0.993   1.719   1.900  0.0000  0.0000  0.0000
    1GR    C143  143   1.064   1.842   1.900  0.0000  0.0000  0.0000
    1GR    C144  144   1.205   1.842   1.900  0.0000  0.0000  0.0000
    1GR    C145  145   0.851   1.965   1.900  0.0000  0.0000  0.0000
    1GR    C146  146   0.993   1.965   1.900  0.0000  0.0000  0.0000
    1GR    C147  147   1.064   2.088   1.900  0.0000  0.0000  0.0000
    1GR    C148  148   1.205   2.088   1.900  0.0000  0.0000  0.0000
    1GR    C149  149   0.851   2.210   1.900  0.0000  0.0000  0.0000
    1GR    C150  150   0.993   2.210   1.900  0.0000  0.0000  0.0000
    1GR    C151  151   1.064   2.333   1.900  0.0000  0.0000  0.0000
    1GR    C152  152   1.205   2.333   1.900  0.0000  0.0000  0.0000
    1GR    C153  153   0.851   2.456   1.900  0.0000  0.0000  0.0000
    1GR    C154  154   0.993   2.456   1.900  0.0000  0.0000  0.0000
    1GR    C155  155   1.064   2.579   1.900  0.0000  0.0000  0.0000
    1GR    C156  156   1.205   2.579   1.900  0.0000  0.0000  0.0000
    1GR    C157  157   0.851   2.702   1.900  0.0000  0.0000  0.0000
    1GR    C158  158   0.993   2.702   1.900  0.0000  0.0000  0.0000
    1GR    C159  159   1.064   2.824   1.900  0.0000  0.0000  0.0000
    1GR    C160  160   1.205   2.824   1.900  0.0000  0.0000  0.0000
    1GR    C161  161   0.851   2.947   1.900  0.0000  0.0000  0.0000
    1GR    C162  162   0.993   2.947   1.900  0.0000  0.0000  0.0000
    1GR    C163  163   1.064   3.070   1.900  0.0000  0.0000  0.0000
    1GR    C164  164   1.205   3.070   1.900  0.0000  0.0000  0.0000
    1GR    C165  165   0.851   3.193   1.900  0.0000  0.0000  0.0000
    1GR    C166  166   0.993   3.193   1.900  0.0000  0.0000  0.0000
    1GR    C167  167   1.064   3.316   1.900  0.0000  0.0000  0.0000
    1GR    C168  168   1.205   3.316   1.900  0.0000  0.0000  0.0000
    1GR    C169  169   1.276   0.000   1.900  0.0000  0.0000  0.0000
    1GR    C170  170   1.418   0.000   1.900  0.0000  0.0000  0.0000
    1GR    C171  171   1.489   0.123   1.900  0.0000  0.0000  0.0000
    1GR    C172  172   1.631   0.123   1.900  0.0000  0.0000  0.0000
    1GR    C173  173   1.276   0.246   1.900  0.0000  0.0000  0.0000
    1GR    C174  174   1.418   0.246   1.900  0.0000  0.0000  0.0000
    1GR    C175  175   1.489   0.368   1.900  0.0000  0.0000  0.0000
    1GR    C176  176   1.631   0.368   1.900  0.0000  0.0000  0.0000
    1GR    C177  177   1.276   0.491   1.900  0.0000  0.0000  0.0000
    1GR    C178  178   1.418   0.491   1.900  0.0000  0.0000  0.0000
    1GR    C179  179   1.489   0.614   1.900  0.0000  0.0000  0.0000
    1GR    C180  180   1.631   0.614   1.900  0.0000  0.0000  0.0000
    1GR    C181  181   1.276   0.737   1.900  0.0000  0.0000  0.0000
    1GR    C182  182   1.418   0.737   1.900  0.0000  0.0000  0.0000
    1GR    C183  183   1.489   0.860   1.900  0.0000  0.0000  0.0000
    1GR    C184  184   1.631   0.860   1.900  0.0000  0.0000  0.0000
    1GR    C185  185   1.276   0.982   1.900  0.0000  0.0000  0.0000
    1GR    C186  186   1.418   0.982   1.900  0.0000  0.0000  0.0000
    1GR    C187  187   1.489   1.105   1.900  0.0000  0.0000  0.0000
    1GR    C188  188   1.631   1.105   1.900  0.0000  0.0000  0.0000
    1GR    C189  189   1.276   1.228   1.900  0.0000  0.0000  0.0000
    1GR    C190  190   1.418   1.228   1.900  0.0000  0.0000  0.0000
    1GR    C191  191   1.489   1.351   1.900  0.0000  0.0000  0.0000
    1GR    C192  192   1.631   1.351   1.900  0.0000  0.0000  0.0000
    1GR    C193  193   1.276   1.474   1.900  0.0000  0.0000  0.0000
    1GR    C194  194   1.418   1.474   1.900  0.0000  0.0000  0.0000
    1GR    C195  195   1.489   1.596   1.900  0.0000  0.0000  0.0000
    1GR    C196  196   1.631   1.596   1.900  0.0000  0.0000  0.0000
    1GR    C197  197   1.276   1.719   1.900  0.0000  0.0000  0.0000
    1GR    C198  198   1.418   1.719   1.900  0.0000  0.0000  0.0000
    1GR    C199  199   1.489   1.842   1.900  0.0000  0.0000  0.0000
    1GR    C200  200   1.631   1.842   1.900  0.0000  0.0000  0.0000
    1GR    C201  201   1.276   1.965   1.900  0.0000  0.0000  0.0000
    1GR    C202  202   1.418   1.965   1.900  0.0000  0.0000  0.0000
    1GR    C203  203   1.489   2.088   1.900  0.0000  0.0000  0.0000
    1GR    C204  204   1.631   2.088   1.900  0.0000  0.0000  0.0000
    1GR    C205  205   1.276   2.210   1.900  0.0000  0.0000  0.0000
    1GR    C206  206   1.418   2.210   1.900  0.0000  0.0000  0.0000
    1GR    C207  207   1.489   2.333   1.900  0.0000  0.0000  0.0000
    1GR    C208  208   1.631   2.333   1.900  0.0000  0.0000  0.0000
    1GR    C209  209   1.276   2.456   1.900  0.0000  0.0000  0.0000
    1GR    C210  210   1.418   2.456   1.900  0.0000  0.0000  0.0000
    1GR    C211  211   1.489   2.579   1.900  0.0000  0.0000  0.0000
    1GR    C212  212   1.631   2.579   1.900  0.0000  0.0000  0.0000
    1GR    C213  213   1.276   2.702   1.900  0.0000  0.0000  0.0000
    1GR    C214  214   1.418   2.702   1.900  0.0000  0.0000  0.0000
    1GR    C215  215   1.489   2.824   1.900  0.0000  0.0000  0.0000
    1GR    C216  216   1.631   2.824   1.900  0.0000  0.0000  0.0000
    1GR    C217  217   1.276   2.947   1.900  0.0000  0.0000  0.0000
    1GR    C218  218   1.418   2.947   1.900  0.0000  0.0000  0.0000
    1GR    C219  219   1.489   3.070   1.900  0.0000  0.0000  0.0000
    1GR    C220  220   1.631   3.070   1.900  0.0000  0.0000  0.0000
    1GR    C221  221   1.276   3.193   1.900  0.0000  0.0000  0.0000
    1GR    C222  222   1.418   3.193   1.900  0.0000  0.0000  0.0000
    1GR    C223  223   1.489   3.316   1.900  0.0000  0.0000  0.0000
    1GR    C224  224   1.631   3.316   1.900  0.0000  0.0000  0.0000
    1GR    C225  225   1.702   0.000   1.900  0.0000  0.0000  0.0000
    1GR    C226  226   1.843   0.000   1.900  0.0000  0.0000  0.0000
    1GR    C227  227   1.914   0.123   1.900  0.0000  0.0000  0.0000
    1GR    C228  228   2.056   0.123   1.900  0.0000  0.0000  0.0000
    1GR    C229  229   1.702   0.246   1.900  0.0000  0.0000  0.0000
    1GR    C230  230   1.843   0.246   1.900  0.0000  0.0000  0.0000
    1GR    C231  231   1.914   0.368   1.900  0.0000  0.0000  0.0000
    1GR    C232  232   2.056   0.368   1.900  0.0000  0.0000  0.0000
    1GR    C233  233   1.702   0.491   1.900  0.0000  0.0000  0.0000
    1GR    C234  234   1.843   0.491   1.900  0.0000  0.0000  0.0000
    1GR    C235  235   1.914   0.614   1.900  0.0000  0.0000  0.0000
    1GR    C236  236   2.056   0.614   1.900  0.0000  0.0000  0.0000
    1GR    C237  237   1.702   0.737   1.900  0.0000  0.0000  0.0000
    1GR    C238  238   1.843   0.737   1.900  0.0000  0.0000  0.0000
    1GR    C239  239   1.914   0.860   1.900  0.0000  0.0000  0.0000
    1GR    C240  240   2.056   0.860   1.900  0.0000  0.0000  0.0000
    1GR    C241  241   1.702   0.982   1.900  0.0000  0.0000  0.0000
    1GR    C242  242   1.843   0.982   1.900  0.0000  0.0000  0.0000
    1GR    C243  243   1.914   1.105   1.900  0.0000  0.0000  0.0000
    1GR    C244  244   2.056   1.105   1.900  0.0000  0.0000  0.0000
    1GR    C245  245   1.702   1.228   1.900  0.0000  0.0000  0.0000
    1GR    C246  246   1.843   1.228   1.900  0.0000  0.0000  0.0000
    1GR    C247  247   1.914   1.351   1.900  0.0000  0.0000  0.0000
    1GR    C248  248   2.056   1.351   1.900  0.0000  0.0000  0.0000
    1GR    C249  249   1.702   1.474   1.900  0.0000  0.0000  0.0000
    1GR    C250  250   1.843   1.474   1.900  0.0000  0.0000  0.0000
    1GR    C251  251   1.914   1.596   1.900  0.0000  0.0000  0.0000
    1GR    C252  252   2.056   1.596   1.900  0.0000  0.0000  0.0000
    1GR    C253  253   1.702   1.719   1.900  0.0000  0.0000  0.0000
    1GR    C254  254   1.843   1.719   1.900  0.0000  0.0000  0.0000
    1GR    C255  255   1.914   1.842   1.900  0.0000  0.0000  0.0000
    1GR    C256  256   2.056   1.842   1.900  0.0000  0.0000  0.0000
    1GR    C257  257   1.702   1.965   1.900  0.0000  0.0000  0.0000
    1GR    C258  258   1.843   1.965   1.900  0.0000  0.0000  0.0000
    1GR    C259  259   1.914   2.088   1.900  0.0000  0.0000  0.0000
    1GR    C260  260   2.056   2.088   1.900  0.0000  0.0000  0.0000
    1GR    C261  261   1.702   2.210   1.900  0.0000  0.0000  0.0000
    1GR    C262  262   1.843   2.210   1.900  0.0000  0.0000  0.0000
    1GR    C263  263   1.914   2.333   1.900  0.0000  0.0000  0.0000
    1GR    C264  264   2.056   2.333   1.900  0.0000  0.0000  0.0000
    1GR    C265  265   1.702   2.456   1.900  0.0000  0.0000  0.0000
    1GR    C266  266   1.843   2.456   1.900  0.0000  0.0000  0.0000
    1GR    C267  267   1.914   2.579   1.900  0.0000  0.0000  0.0000
    1GR    C268  268   2.056   2.579   1.900  0.0000  0.0000  0.0000
    1GR    C269  269   1.702   2.702   1.900  0.0000  0.0000  0.0000
    1GR    C270  270   1.843   2.702   1.900  0.0000  0.0000  0.0000
    1GR    C271  271   1.914   2.824   1.900  0.0000  0.0000  0.0000
    1GR    C272  272   2.056   2.824   1.900  0.0000  0.0000  0.0000
    1GR    C273  273   1.702   2.947   1.900  0.0000  0.0000  0.0000
    1GR    C274  274   1.843   2.947   1.900  0.0000  0.0000  0.0000
    1GR    C275  275   1.914   3.070   1.900  0.0000  0.0000  0.0000
    1GR    C276  276   2.056   3.070   1.900  0.0000  0.0000  0.0000
    1GR    C277  277   1.702   3.193   1.900  0.0000  0.0000  0.0000
    1GR    C278  278   1.843   3.193   1.900  0.0000  0.0000  0.0000
    1GR    C279  279   1.914   3.316   1.900  0.0000  0.0000  0.0000
    1GR    C280  280   2.056   3.316   1.900  0.0000  0.0000  0.0000
    1GR    C281  281   2.127   0.000   1.900  0.0000  0.0000  0.0000
    1GR    C282  282   2.269   0.000   1.900  0.0000  0.0000  0.0000
    1GR    C283  283   2.340   0.123   1.900  0.0000  0.0000  0.0000
    1GR    C284  284   2.481   0.123   1.900  0.0000  0.0000  0.0000
    1GR    C285  285   2.127   0.246   1.900  0.0000  0.0000  0.0000
    1GR    C286  286   2.269   0.246   1.900  0.0000  0.0000  0.0000
    1GR    C287  287   2.340   0.368   1.900  0.0000  0.0000  0.0000
    1GR    C288  288   2.481   0.368   1.900  0.0000  0.0000  0.0000
    1GR    C289  289   2.127   0.491   1.900  0.0000  0.0000  0.0000
    1GR    C290  290   2.269   0.491   1.900  0.0000  0.0000  0.0000
    1GR    C291  291   2.340   0.614   1.900  0.0000  0.0000  0.0000
    1GR    C292  292   2.481   0.614   1.900  0.0000  0.0000  0.0000
    1GR    C293  293   2.127   0.737   1.900  0.0000  0.0000  0.0000
    1GR    C294  294   2.269   0.737   1.900  0.0000  0.0000  0.0000
    1GR    C295  295   2.340   0.860   1.900  0.0000  0.0000  0.0000
    1GR    C296  296   2.481   0.860   1.900  0.0000  0.0000  0.0000
    1GR    C297  297   2.127   0.982   1.900  0.0000  0.0000  0.0000
    1GR    C298  298   2.269   0.982   1.900  0.0000  0.0000  0.0000
    1GR    C299  299   2.340   1.105   1.900  0.0000  0.0000  0.0000
    1GR    C300  300   2.481   1.105   1.900  0.0000  0.0000  0.0000
    1GR    C301  301   2.127   1.228   1.900  0.0000  0.0000  0.0000
    1GR    C302  302   2.269   1.228   1.900  0.0000  0.0000  0.0000
    1GR    C303  303   2.340   1.351   1.900  0.0000  0.0000  0.0000
    1GR    C304  304   2.481   1.351   1.900  0.0000  0.0000  0.0000
    1GR    C305  305   2.127   1.474   1.900  0.0000  0.0000  0.0000
    1GR    C306  306   2.269   1.474   1.900  0.0000  0.0000  0.0000
    1GR    C307  307   2.340   1.596   1.900  0.0000  0.0000  0.0000
    1GR    C308  308   2.481   1.596   1.900  0.0000  0.0000  0.0000
    1GR    C309  309   2.127   1.719   1.900  0.0000  0.0000  0.0000
    1GR    C310  310   2.269   1.719   1.900  0.0000  0.0000  0.0000
    1GR    C311  311   2.340   1.842   1.900  0.0000  0.0000  0.0000
    1GR    C312  312   2.481   1.842   1.900  0.0000  0.0000  0.0000
    1GR    C313  313   2.127   1.965   1.900  0.0000  0.0000  0.0000
    1GR    C314  314   2.269   1.965   1.900  0.0000  0.0000  0.0000
    1GR    C315  315   2.340   2.088   1.900  0.0000  0.0000  0.0000
    1GR    C316  316   2.481   2.088   1.900  0.0000  0.0000  0.0000
    1GR    C317  317   2.127   2.210   1.900  0.0000  0.0000  0.0000
    1GR    C318  318   2.269   2.210   1.900  0.0000  0.0000  0.0000
    1GR    C319  319   2.340   2.333   1.900  0.0000  0.0000  0.0000
    1GR    C320  320   2.481   2.333   1.900  0.0000  0.0000  0.0000
    1GR    C321  321   2.127   2.456   1.900  0.0000  0.0000  0.0000
    1GR    C322  322   2.269   2.456   1.900  0.0000  0.0000  0.0000
    1GR    C323  323   2.340   2.579   1.900  0.0000  0.0000  0.0000
    1GR    C324  324   2.481   2.579   1.900  0.0000  0.0000  0.0000
    1GR    C325  325   2.127   2.702   1.900  0.0000  0.0000  0.0000
    1GR    C326  326   2.269   2.702   1.900  0.0000  0.0000  0.0000
    1GR    C327  327   2.340   2.824   1.900  0.0000  0.0000  0.0000
    1GR    C328  328   2.481   2.824   1.900  0.0000  0.0000  0.0000
    1GR    C329  329   2.127   2.947   1.900  0.0000  0.0000  0.0000
    1GR    C330  330   2.269   2.947   1.900  0.0000  0.0000  0.0000
    1GR    C331  331   2.340   3.070   1.900  0.0000  0.0000  0.0000
    1GR    C332  332   2.481   3.070   1.900  0.0000  0.0000  0.0000
    1GR    C333  333   2.127   3.193   1.900  0.0000  0.0000  0.0000
    1GR    C334  334   2.269   3.193   1.900  0.0000  0.0000  0.0000
    1GR    C335  335   2.340   3.316   1.900  0.0000  0.0000  0.0000
    1GR    C336  336   2.481   3.316   1.900  0.0000  0.0000  0.0000
    1GR    C337  337   2.552   0.000   1.900  0.0000  0.0000  0.0000
    1GR    C338  338   2.694   0.000   1.900  0.0000  0.0000  0.0000
    1GR    C339  339   2.765   0.123   1.900  0.0000  0.0000  0.0000
    1GR    C340  340   2.907   0.123   1.900  0.0000  0.0000  0.0000
    1GR    C341  341   2.552   0.246   1.900  0.0000  0.0000  0.0000
    1GR    C342  342   2.694   0.246   1.900  0.0000  0.0000  0.0000
    1GR    C343  343   2.765   0.368   1.900  0.0000  0.0000  0.0000
    1GR    C344  344   2.907   0.368   1.900  0.0000  0.0000  0.0000
    1GR    C345  345   2.552   0.491   1.900  0.0000  0.0000  0.0000
    1GR    C346  346   2.694   0.491   1.900  0.0000  0.0000  0.0000
    1GR    C347  347   2.765   0.614   1.900  0.0000  0.0000  0.0000
    1GR    C348  348   2.907   0.614   1.900  0.0000  0.0000  0.0000
    1GR    C349  349   2.552   0.737   1.900  0.0000  0.0000  0.0000
    1GR    C350  350   2.694   0.737   1.900  0.0000  0.0000  0.0000
    1GR    C351  351   2.765   0.860   1.900  0.0000  0.0000  0.0000
    1GR    C352  352   2.907   0.860   1.900  0.0000  0.0000  0.0000
    1GR    C353  353   2.552   0.982   1.900  0.0000  0.0000  0.0000
    1GR    C354  354   2.694   0.982   1.900  0.0000  0.0000  0.0000
    1GR    C355  355   2.765   1.105   1.900  0.0000  0.0000  0.0000
    1GR    C356  356   2.907   1.105   1.900  0.0000  0.0000  0.0000
    1GR    C357  357   2.552   1.228   1.900  0.0000  0.0000  0.0000
    1GR    C358  358   2.694   1.228   1.900  0.0000  0.0000  0.0000
    1GR    C359  359   2.765   1.351   1.900  0.0000  0.0000  0.0000
    1GR    C360  360   2.907   1.351   1.900  0.0000  0.0000  0.0000
    1GR    C361  361   2.552   1.474   1.900  0.0000  0.0000  0.0000
    1GR    C362  362   2.694   1.474   1.900  0.0000  0.0000  0.0000
    1GR    C363  363   2.765   1.596   1.900  0.0000  0.0000  0.0000
    1GR    C364  364   2.907   1.596   1.900  0.0000  0.0000  0.0000
    1GR    C365  365   2.552   1.719   1.900  0.0000  0.0000  0.0000
    1GR    C366  366   2.694   1.719   1.900  0.0000  0.0000  0.0000
    1GR    C367  367   2.765   1.842   1.900  0.0000  0.0000  0.0000
    1GR    C368  368   2.907   1.842   1.900  0.0000  0.0000  0.0000
    1GR    C369  369   2.552   1.965   1.900  0.0000  0.0000  0.0000
    1GR    C370  370   2.694   1.965   1.900  0.0000  0.0000  0.0000
    1GR    C371  371   2.765   2.088   1.900  0.0000  0.0000  0.0000
    1GR    C372  372   2.907   2.088   1.900  0.0000  0.0000  0.0000
    1GR    C373  373   2.552   2.210   1.900  0.0000  0.0000  0.0000
    1GR    C374  374   2.694   2.210   1.900  0.0000  0.0000  0.0000
    1GR    C375  375   2.765   2.333   1.900  0.0000  0.0000  0.0000
    1GR    C376  376   2.907   2.333   1.900  0.0000  0.0000  0.0000
    1GR    C377  377   2.552   2.456   1.900  0.0000  0.0000  0.0000
    1GR    C378  378   2.694   2.456   1.900  0.0000  0.0000  0.0000
    1GR    C379  379   2.765   2.579   1.900  0.0000  0.0000  0.0000
    1GR    C380  380   2.907   2.579   1.900  0.0000  0.0000  0.0000
    1GR    C381  381   2.552   2.702   1.900  0.0000  0.0000  0.0000
    1GR    C382  382   2.694   2.702   1.900  0.0000  0.0000  0.0000
    1GR    C383  383   2.765   2.824   1.900  0.0000  0.0000  0.0000
    1GR    C384  384   2.907   2.824   1.900  0.0000  0.0000  0.0000
    1GR    C385  385   2.552   2.947   1.900  0.0000  0.0000  0.0000
    1GR    C386  386   2.694   2.947   1.900  0.0000  0.0000  0.0000
    1GR    C387  387   2.765   3.070   1.900  0.0000  0.0000  0.0000
    1GR    C388  388   2.907   3.070   1.900  0.0000  0.0000  0.0000
    1GR    C389  389   2.552   3.193   1.900  0.0000  0.0000  0.0000
    1GR    C390  390   2.694   3.193   1.900  0.0000  0.0000  0.0000
    1GR    C391  391   2.765   3.316   1.900  0.0000  0.0000  0.0000
    1GR    C392  392   2.907   3.316   1.900  0.0000  0.0000  0.0000
    1GR    C393  393   2.978   0.000   1.900  0.0000  0.0000  0.0000
    1GR    C394  394   3.120   0.000   1.900  0.0000  0.0000  0.0000
    1GR    C395  395   3.191   0.123   1.900  0.0000  0.0000  0.0000
    1GR    C396  396   3.332   0.123   1.900  0.0000  0.0000  0.0000
    1GR    C397  397   2.978   0.246   1.900  0.0000  0.0000  0.0000
    1GR    C398  398   3.120   0.246   1.900  0.0000  0.0000  0.0000
    1GR    C399  399   3.191   0.368   1.900  0.0000  0.0000  0.0000
    1GR    C400  400   3.332   0.368   1.900  0.0000  0.0000  0.0000
    1GR    C401  401   2.978   0.491   1.900  0.0000  0.0000  0.0000
    1GR    C402  402   3.120   0.491   1.900  0.0000  0.0000  0.0000
    1GR    C403  403   3.191   0.614   1.900  0.0000  0.0000  0.0000
    1GR    C404  404   3.332   0.614   1.900  0.0000  0.0000  0.0000
    1GR    C405  405   2.978   0.737   1.900  0.0000  0.0000  0.0000
    1GR    C406  406   3.120   0.737   1.900  0.0000  0.0000  0.0000
    1GR    C407  407   3.191   0.860   1.900  0.0000  0.0000  0.0000
    1GR    C408  408   3.332   0.860   1.900  0.0000  0.0000  0.0000
    1GR    C409  409   2.978   0.982   1.900  0.0000  0.0000  0.0000
    1GR    C410  410   3.120   0.982   1.900  0.0000  0.0000  0.0000
    1GR    C411  411   3.191   1.105   1.900  0.0000  0.0000  0.0000
    1GR    C412  412   3.332   1.105   1.900  0.0000  0.0000  0.0000
    1GR    C413  413   2.978   1.228   1.900  0.0000  0.0000  0.0000
    1GR    C414  414   3.120   1.228   1.900  0.0000  0.0000  0.0000
    1GR    C415  415   3.191   1.351   1.900  0.0000  0.0000  0.0000
    1GR    C416  416   3.332   1.351   1.900  0.0000  0.0000  0.0000
    1GR    C417  417   2.978   1.474   1.900  0.0000  0.0000  0.0000
    1GR    C418  418   3.120   1.474   1.900  0.0000  0.0000  0.0000
    1GR    C419  419   3.191   1.596   1.900  0.0000  0.0000  0.0000
    1GR    C420  420   3.332   1.596   1.900  0.0000  0.0000  0.0000
    1GR    C421  421   2.978   1.719   1.900  0.0000  0.0000  0.0000
    1GR    C422  422   3.120   1.719   1.900  0.0000  0.0000  0.0000
    1GR    C423  423   3.191   1.842   1.900  0.0000  0.0000  0.0000
    1GR    C424  424   3.332   1.842   1.900  0.0000  0.0000  0.0000
    1GR    C425  425   2.978   1.965   1.900  0.0000  0.0000  0.0000
    1GR    C426  426   3.120   1.965   1.900  0.0000  0.0000  0.0000
    1GR    C427  427   3.191   2.088   1.900  0.0000  0.0000  0.0000
    1GR    C428  428   3.332   2.088   1.900  0.0000  0.0000  0.0000
    1GR    C429  429   2.978   2.210   1.900  0.0000  0.0000  0.0000
    1GR    C430  430   3.120   2.210   1.900  0.0000  0.0000  0.0000
    1GR    C431  431   3.191   2.333   1.900  0.0000  0.0000  0.0000
    1GR    C432  432   3.332   2.333   1.900  0.0000  0.0000  0.0000
    1GR    C433  433   2.978   2.456   1.900  0.0000  0.0000  0.0000
    1GR    C434  434   3.120   2.456   1.900  0.0000  0.0000  0.0000
    1GR    C435  435   3.191   2.579   1.900  0.0000  0.0000  0.0000
    1GR    C436  436   3.332   2.579   1.900  0.0000  0.0000  0.0000
    1GR    C437  437   2.978   2.702   1.900  0.0000  0.0000  0.0000
    1GR    C438  438   3.120   2.702   1.900  0.0000  0.0000  0.0000
    1GR    C439  439   3.191   2.824   1.900  0.0000  0.0000  0.0000
    1GR    C440  440   3.332   2.824   1.900  0.0000  0.0000  0.0000
    1GR    C441  441   2.978   2.947   1.900  0.0000  0.0000  0.0000
    1GR    C442  442   3.120   2.947   1.900  0.0000  0.0000  0.0000
    1GR    C443  443   3.191   3.070   1.900  0.0000  0.0000  0.0000
    1GR    C444  444   3.332   3.070   1.900  0.0000  0.0000  0.0000
    1GR    C445  445   2.978   3.193   1.900  0.0000  0.0000  0.0000
    1GR    C446  446   3.120   3.193   1.900  0.0000  0.0000  0.0000
    1GR    C447  447   3.191   3.316   1.900  0.0000  0.0000  0.0000
    1GR    C448  448   3.332   3.316   1.900  0.0000  0.0000  0.0000
    2PMMA   CX1  449   3.191   0.858   2.880  1.1689 -0.4218  0.4538
    2PMMA   CA2  450   3.257   0.746   2.964 -0.1579  0.0729 -0.0703
    2PMMA   CX3  451   3.289   0.628   2.866  0.8010  0.5468  0.1506
    2PMMA    C4  452   3.387   0.810   3.019 -0.4562 -0.6387 -0.0859
    2PMMA    O5  453   3.391   0.921   3.070 -0.2233  0.0962 -0.0111
    2PMMA   OS6  454   3.503   0.738   3.026  0.5436 -0.3041  0.1007
    2PMMA   CE7  455   3.614   0.773   3.107 -0.8181 -0.3950 -0.4362
    2PMMA   CX8  456   3.152   0.706   3.073  0.2900 -0.3687  0.6153
    2PMMA   CA9  457   3.171   0.590   3.178  0.4251 -0.5444  0.3242
    2PMMA  CX10  458   3.143   0.459   3.112 -0.6878  0.0820 -0.1466
    2PMMA   C11  459   3.061   0.618   3.288  0.4585  0.4372 -0.5042
    2PMMA   O12  460   2.958   0.553   3.308  0.3340  0.2850  0.4528
    2PMMA  OS13  461   3.073   0.740   3.339 -0.1308 -1.1959 -0.3553
    2PMMA  CE14  462   2.994   0.788   3.450  1.0888  0.5352  0.4283
    2PMMA  CX15  463   3.315   0.603   3.239  0.6188 -0.5960 -0.2955
    2PMMA  CA16  464   3.369   0.509   3.354 -0.7416  0.6835 -0.3563
    2PMMA  CX17  465   3.494   0.575   3.410  0.3086  0.7958  0.6801
    2PMMA   C18  466   3.265   0.497   3.467  0.4044  0.3162 -1.1917
    2PMMA   O19  467   3.265   0.565   3.566 -0.6875  0.1795  0.3534
    2PMMA  OS20  468   3.187   0.387   3.457  0.6985 -0.2362 -0.0996
    2PMMA  CE21  469   3.073   0.366   3.541  0.1111 -0.7055  0.0931
    2PMMA  CX22  470   3.411   0.363   3.300  0.0445  0.4629 -0.0118
    2PMMA  CA23  471   3.497   0.258   3.379 -0.3211  0.9982  1.3577
    2PMMA  CX24  472   3.449   0.246   3.531 -0.9612  0.4340 -0.2793
    2PMMA   C25  473   3.649   0.286   3.354  0.0130  0.4382 -0.6943
    2PMMA   O26  474   3.701   0.287   3.246  0.5534  0.0442  0.3858
    2PMMA  OS27  475   3.712   0.349   3.455 -0.2075 -0.2293 -0.5821
    2PMMA  CE28  476   3.835   0.419   3.438  0.4473  0.1462 -0.1117
    2PMMA  CX29  477   3.480   0.113   3.318 -0.0403 -0.3947 -0.2682
    2PMMA  HC30  478   3.267   0.887   2.807 -0.1484  1.6133 -0.1432
    2PMMA  HC31  479   3.109   0.816   2.820  1.7506  0.4789 -1.0034
    2PMMA  HC32  480   3.150   0.936   2.945 -1.0259 -0.1091 -1.2151
    2PMMA  HC33  481   3.348   0.546   2.909  0.4921  0.4909  0.4782
    2PMMA  HC34  482   3.343   0.652   2.774  1.1803  0.5532  0.3747
    2PMMA  HC35  483   3.197   0.578   2.832  1.7154  0.0058 -1.5799
    2PMMA  H136  484   3.682   0.845   3.061 -1.8282  0.0786 -1.1975
    2PMMA  H137  485   3.669   0.682   3.134 -1.1043 -0.1406  1.0047
    2PMMA  H138  486   3.581   0.818   3.200 -0.2411 -2.1491  0.6321
    2PMMA  HC39  487   3.132   0.797   3.131 -0.7885 -0.5519  0.5405
    2PMMA  HC40  488   3.062   0.680   3.017  0.7741 -0.2678 -0.2317
    2PMMA  HC41  489   3.056   0.462   3.045  0.0492 -0.1383 -1.1408
    2PMMA  HC42  490   3.225   0.417   3.051  0.3387  0.3365  1.0436
    2PMMA  HC43  491   3.113   0.383   3.184  0.2346 -0.0047  0.1577
    2PMMA  H144  492   3.040   0.875   3.498  1.3670  1.6446 -1.8101
    2PMMA  H145  493   2.971   0.705   3.517  2.5691 -0.5236 -0.3602
    2PMMA  H146  494   2.895   0.814   3.412 -1.1200 -2.1273  4.0018
    2PMMA  HC47  495   3.394   0.578   3.167  0.3471 -2.1694 -0.0638
    2PMMA  HC48  496   3.323   0.710   3.260  1.0640 -0.8307  0.7522
    2PMMA  HC49  497   3.571   0.572   3.332 -0.2148 -2.3988  0.1999
    2PMMA  HC50  498   3.532   0.536   3.505 -0.7324  0.6249  1.0289
    2PMMA  HC51  499   3.480   0.682   3.428 -0.8862  0.3138  2.7592
    2PMMA  H152  500   2.978   0.391   3.492  0.4294 -0.0147 -0.1799
    2PMMA  H153  501   3.076   0.427   3.631 -0.9505  0.8921 -0.9199
    2PMMA  H154  502   3.064   0.259   3.562  1.8474 -0.9140 -0.1466
    2PMMA  HC55  503   3.324   0.317   3.252  0.5341  0.1846 -0.6514
    2PMMA  HC56  504   3.476   0.391   3.216  2.0773  2.0850  2.0148
    2PMMA  HC57  505   3.490   0.163   3.590  0.9290  1.4282 -0.1514
    2PMMA  HC58  506   3.475   0.337   3.585 -0.4200  0.3771 -0.4439
    2PMMA  HC59  507   3.342   0.223   3.537 -0.3276 -2.1915  2.5731
    2PMMA  H160  508   3.809   0.518   3.400  0.0971  0.0965 -0.0092
    2PMMA  H161  509   3.913   0.372   3.379  0.4464  0.4640 -0.3662
    2PMMA  H162  510   3.878   0.421   3.539 -0.7787 -2.2239  0.5047
    2PMMA  HC63  511   3.377   0.084   3.338  0.3274 -3.0646 -2.0564
    2PMMA  HC64  512   3.502   0.107   3.211 -2.4763 -0.7853 -0.7818
    2PMMA  HC65  513   3.528   0.028   3.367  2.0654  0.7527 -0.2871
    3DMF     C1  514   1.681   1.148   0.952  0.4949 -0.1834 -0.6616
    3DMF     N1  515   1.540   1.160   0.916 -0.4793 -0.6674  0.5457
    3DMF     C2  516   1.499   1.238   0.791  0.0402  0.4780  0.0853
    3DMF     C3  517   1.446   1.111   0.996 -0.7349  1.1201  0.1479
    3DMF     O1  518   1.462   1.070   1.111 -0.4427 -0.2102 -0.6060
    3DMF     H1  519   1.754   1.172   0.874  0.3761 -0.1828 -0.7730
    3DMF     H2  520   1.711   1.052   0.995 -0.2900  0.9074  2.4303
    3DMF     H3  521   1.699   1.214   1.037  2.0152 -0.5946 -0.6513
    3DMF     H4  522   1.405   1.294   0.805  0.0690  0.3041  1.0267
    3DMF     H5  523   1.500   1.180   0.699 -1.8208 -0.2288  0.4903
    3DMF     H6  524   1.580   1.310   0.772  0.2630 -0.0827 -1.1420
    3DMF     H7  525   1.349   1.124   0.945 -2.1543 -2.6776  1.6481
    4DMF     C1  526   0.555   1.033   0.557 -0.6100  0.3455 -0.1591
    4DMF     N1  527   0.457   1.034   0.443  0.1254 -0.4810  0.1067
    4DMF     C2  528   0.324   0.985   0.463  0.1796 -0.2364 -0.2502
    4DMF     C3  529   0.490   1.093   0.314 -0.7717 -0.4576 -0.2026
    4DMF     O1  530   0.602   1.148   0.296  0.1499 -0.1951  0.1847
    4DMF     H1  531   0.508   0.980   0.641  1.0639  0.9988  1.2051
    4DMF     H2  532   0.583   1.134   0.590 -0.7420  0.8877 -1.6801
    4DMF     H3  533   0.643   0.982   0.515  0.1878  2.0872 -0.6335
    4DMF     H4  534   0.264   0.991   0.371 -1.6128  0.7025  0.9629
    4DMF     H5  535   0.280   1.022   0.556  1.5001 -1.7146  0.9920
    4DMF     H6  536   0.329   0.876   0.475  2.2337  0.0861  2.3364
    4DMF     H7  537   0.414   1.100   0.234 -1.0877  1.6159  0.2372
    5DMF     C1  538   1.276   2.512   0.607  0.5305  0.4603 -0.9416
    5DMF     N1  539   1.412   2.550   0.560 -0.0996 -0.3531  0.7036
    5DMF     C2  540   1.471   2.663   0.637 -0.3582  0.5167 -0.3962
    5DMF     C3  541   1.494   2.477   0.473 -0.7465 -0.3700 -0.3336
    5DMF     O1  542   1.451   2.381   0.412 -0.5235  0.3679 -0.2808
    5DMF     H1  543   1.290   2.463   0.705  3.6299  1.6371 -0.7564
    5DMF     H2  544   1.219   2.444   0.542 -1.1496  1.9096 -1.0266
    5DMF     H3  545   1.217   2.604   0.622  0.2184 -0.2147  2.3237
    5DMF     H4  546   1.401   2.704   0.710  0.6397 -0.2489  1.0219
    5DMF     H5  547   1.521   2.738   0.574 -0.2732 -0.5497 -1.6387
    5DMF     H6  548   1.549   2.624   0.703 -0.6238  0.5953 -0.0379
    5DMF     H7  549   1.590   2.526   0.452 -1.0814  0.4045 -0.0896
    6DMF     C1  550   3.369   1.466   0.957 -0.2444  0.3030 -0.3567
    6DMF     N1  551   3.270   1.377   1.031  0.5522  0.1015  0.2185
    6DMF     C2  552   3.203   1.437   1.139  0.0458 -0.0270  0.2114
    6DMF     C3  553   3.257   1.243   0.995  0.3794 -0.2068  0.3276
    6DMF     O1  554   3.325   1.185   0.913 -0.8215 -0.2057  0.0867
    6DMF     H1  555   3.316   1.556   0.922  0.3845  0.2285 -1.5270
    6DMF     H2  556   3.415   1.401   0.882  1.6348 -0.4998  1.4667
    6DMF     H3  557   3.458   1.482   1.018  1.4270  0.4725 -2.7747
    6DMF     H4  558   3.245   1.537   1.158 -0.0374 -0.0758  0.6447
    6DMF     H5  559   3.218   1.377   1.229 -0.6993 -0.8580 -0.2085
    6DMF     H6  560   3.098   1.438   1.108  0.7892 -1.3070 -2.4713
    6DMF     H7  561   3.175   1.196   1.053  1.0625 -2.0941 -0.1902
    7DMF     C1  562   1.011   2.544   3.325  0.1697 -0.4943 -0.3074
    7DMF     N1  563   1.124   2.529   3.418  0.4861  0.1691 -0.9273
    7DMF     C2  564   1.099   2.581   3.551  0.5442 -0.1130  0.6406
    7DMF     C3  565   1.228   2.430   3.402 -0.3762  0.8731  0.6662
    7DMF     O1  566   1.243   2.379   3.288 -0.6522  0.1299  0.3426
    7DMF     H1  567   1.048   2.599   3.238 -0.4665  0.7909  0.2142
    7DMF     H2  568   0.923   2.594   3.369 -0.7070 -2.1983 -0.0976
    7DMF     H3  569   0.981   2.448   3.282  0.4606 -0.4045 -0.7156
    7DMF     H4  570   1.100   2.690   3.549 -1.8237 -0.1070 -1.9604
    7DMF     H5  571   1.171   2.560   3.632  1.1251 -0.9351 -0.0697
    7DMF     H6  572   1.000   2.556   3.590 -0.2467  0.6967 -0.8138
    7DMF     H7  573   1.280   2.404   3.495 -1.3084 -0.1277  0.9201
    8DMF     C1  574   1.595   0.542   0.119 -1.0817 -0.4488 -0.7844
    8DMF     N1  575   1.729   0.620   0.128 -0.4523 -0.3888  0.1500
    8DMF     C2  576   1.764   0.690   0.012  0.4476  0.2889  0.4894
    8DMF     C3  577   1.813   0.619   0.245  0.0813  0.3746  0.2555
    8DMF     O1  578   1.786   0.553   0.350  0.3211 -0.1071  0.2887
    8DMF     H1  579   1.620   0.435   0.129 -0.6665 -0.3494 -0.7669
    8DMF     H2  580   1.546   0.563   0.023 -1.4184 -0.3678 -0.5970
    8DMF     H3  581   1.540   0.557   0.213  1.5156 -1.6612  0.9952
    8DMF     H4  582   1.844   0.765   0.021  1.1622 -0.5620  1.1921
    8DMF     H5  583   1.682   0.740  -0.042  0.4586  0.9868  1.0995
    8DMF     H6  584   1.793   0.614  -0.061 -0.4851  0.0211  0.3811
    8DMF     H7  585   1.906   0.677   0.229  0.2638  0.2907  0.9904
    9DMF     C1  586   1.649   1.408   0.297  0.4576 -1.1022  0.4395
    9DMF     N1  587   1.524   1.330   0.283 -0.3914  0.2745 -0.1012
    9DMF     C2  588   1.410   1.397   0.225  0.9283 -0.1499 -0.4648
    9DMF     C3  589   1.515   1.201   0.350  0.6700  0.3111  0.1225
    9DMF     O1  590   1.609   1.147   0.407 -0.3068  0.1432  0.1013
    9DMF     H1  591   1.730   1.334   0.295  1.1732 -0.2943 -1.6967
    9DMF     H2  592   1.651   1.457   0.395  0.2199 -0.6280  0.2061
    9DMF     H3  593   1.662   1.483   0.219  2.7408 -1.0533  0.8284
    9DMF     H4  594   1.436   1.501   0.202  0.0054  0.1045 -0.4002
    9DMF     H5  595   1.320   1.397   0.289  1.7503  1.4449  0.7288
    9DMF     H6  596   1.383   1.341   0.135  0.3960 -0.1191 -0.3294
    9DMF     H7  597   1.423   1.144   0.326  2.2176 -1.8965 -0.7925
   10DMF     C1  598   3.046   2.295   0.253  0.3478  0.4631  0.5371
   10DMF     N1  599   3.014   2.441   0.271 -0.0116  0.1047 -0.0454
   10DMF     C2  600   3.073   2.518   0.387 -0.2662 -0.1968 -0.3528
   10DMF     C3  601   2.928   2.502   0.177  0.5624  0.4200 -0.5364
   10DMF     O1  602   2.871   2.439   0.085  0.0913  0.0157 -1.5087
   10DMF     H1  603   2.961   2.235   0.288  0.9061 -0.4984  0.2443
   10DMF     H2  604   3.140   2.264   0.300 -0.8633 -2.3507  1.2023
   10DMF     H3  605   3.063   2.268   0.149  1.1945  1.9121  0.2833
   10DMF     H4  606   3.024   2.482   0.479 -0.3389 -0.6617 -0.5707
   10DMF     H5  607   3.064   2.627   0.379 -0.5716  0.0532  2.5862
   10DMF     H6  608   3.179   2.499   0.403 -0.6009 -1.9931 -0.2216
   10DMF     H7  609   2.915   2.611   0.192 -1.2276  0.3854 -1.6061
   11DMF     C1  610   1.542   1.675   3.143  0.0056 -0.3072 -0.4284
   11DMF     N1  611   1.668   1.746   3.160  0.2283 -0.0239  0.0412
   11DMF     C2  612   1.670   1.891   3.163  0.2284  0.9146  0.0074
   11DMF     C3  613   1.788   1.672   3.173 -0.0673 -0.4128  0.6324
   11DMF     O1  614   1.790   1.547   3.168  0.5746 -0.0077  0.8041
   11DMF     H1  615   1.452   1.733   3.165 -0.3420 -1.3051  0.8370
   11DMF     H2  616   1.539   1.588   3.210 -0.5750  0.2939  0.3190
   11DMF     H3  617   1.537   1.630   3.043  0.7309  1.8945 -1.4887
   11DMF     H4  618   1.610   1.930   3.080  0.5737  2.0786  0.2897
   11DMF     H5  619   1.773   1.928   3.164  1.1050 -1.2777 -2.9762
   11DMF     H6  620   1.621   1.929   3.254 -0.4271  0.8652 -0.3164
   11DMF     H7  621   1.874   1.739   3.190 -0.8503  0.4404  1.2629
   12DMF     C1  622   2.827   0.566   1.541  0.2273  0.2725 -0.3756
   12DMF     N1  623   2.693   0.609   1.506 -0.3085 -0.0394 -0.9553
   12DMF     C2  624   2.620   0.490   1.437 -0.1739  0.7415 -0.0653
   12DMF     C3  625   2.634   0.732   1.540  0.3403  0.0451  0.1989
   12DMF     O1  626   2.698   0.818   1.597 -0.1857 -0.3853  0.0601
   12DMF     H1  627   2.818   0.474   1.601 -1.3104  0.4338 -0.3433
   12DMF     H2  628   2.883   0.634   1.607  1.6176 -0.3840 -0.8474
   12DMF     H3  629   2.886   0.544   1.451  0.5777 -1.5159  0.2541
   12DMF     H4  630   2.528   0.523   1.385  0.0383  1.8456  0.2366
   12DMF     H5  631   2.588   0.412   1.507  0.6080  0.9303  0.5106
   12DMF     H6  632   2.676   0.447   1.353 -2.6929  1.4160 -2.1696
   12DMF     H7  633   2.525   0.727   1.528  0.2268  1.3011  0.6756
   13DMF     C1  634   0.962   2.045   1.157  0.1216  0.0378 -0.1656
   13DMF     N1  635   1.033   2.166   1.177  0.6291 -0.0589  0.0210
   13DMF     C2  636   0.975   2.284   1.117  0.0459 -0.5302  0.0305
   13DMF     C3  637   1.166   2.169   1.214  0.2625  0.0197 -0.0236
   13DMF     O1  638   1.238   2.075   1.241  0.0906 -0.0425 -0.0786
   13DMF     H1  639   0.856   2.074   1.156 -0.3621 -1.6783  0.2704
   13DMF     H2  640   0.992   1.976   1.236  1.1851  1.6129  0.8207
   13DMF     H3  641   0.979   1.992   1.062 -1.7296 -0.8448 -0.0277
   13DMF     H4  642   0.925   2.251   1.025  2.4645  0.2399 -1.6099
   13DMF     H5  643   1.057   2.352   1.091 -1.0961  0.4427 -1.0890
   13DMF     H6  644   0.906   2.333   1.188 -1.3188 -1.0292 -0.9286
   13DMF     H7  645   1.198   2.275   1.216 -0.3894  0.2142  0.2826
   14DMF     C1  646   2.170   0.323   1.533  0.1700  0.0662 -0.6562
   14DMF     N1  647   2.109   0.449   1.560 -0.8448 -0.5028  0.1235
   14DMF     C2  648   1.963   0.454   1.568  0.1015  1.0619  0.4288
   14DMF     C3  649   2.187   0.566   1.565  0.5461 -0.1844 -0.1660
   14DMF     O1  650   2.311   0.559   1.560 -0.7473 -0.1755  0.1579
   14DMF     H1  651   2.269   0.315   1.581 -1.2868 -2.6462  2.0208
   14DMF     H2  652   2.172   0.316   1.423 -2.1353 -2.1204 -0.6089
   14DMF     H3  653   2.114   0.236   1.569  0.2830  0.0539 -0.5083
   14DMF     H4  654   1.923   0.465   1.466  0.2932 -1.4827  0.0408
   14DMF     H5  655   1.925   0.539   1.626 -0.8836 -0.2863  1.8275
   14DMF     H6  656   1.919   0.360   1.606  2.2879  0.3141  1.1590
   14DMF     H7  657   2.131   0.660   1.579  0.7319 -0.2619  1.1717
   15DMF     C1  658   1.823   2.701   1.188 -0.7183  0.7705  0.5648
   15DMF     N1  659   1.696   2.737   1.129  0.9316 -0.3971 -0.0454
   15DMF     C2  660   1.588   2.786   1.209  0.7031 -0.4588 -0.0216
   15DMF     C3  661   1.678   2.714   0.991  0.5800 -0.4631 -0.3739
   15DMF     O1  662   1.761   2.660   0.920 -0.2371 -0.4817 -0.3653
   15DMF     H1  663   1.828   2.725   1.295  2.4706 -2.4229  1.2456
   15DMF     H2  664   1.910   2.743   1.137 -1.7068  1.4609 -0.5879
   15DMF     H3  665   1.841   2.593   1.176 -1.6423  0.7270 -0.5538
   15DMF     H4  666   1.545   2.880   1.172  0.3142 -0.1373  1.2028
   15DMF     H5  667   1.629   2.810   1.308  0.2299 -0.3562  0.1508
   15DMF     H6  668   1.502   2.717   1.216 -1.4728  2.4225  3.4215
   15DMF     H7  669   1.576   2.744   0.958  1.1891  1.0705 -0.9271
   16DMF     C1  670   2.498   2.202   3.212 -0.2517  0.4720  0.0269
   16DMF     N1  671   2.621   2.158   3.133 -0.4715  0.4936 -0.0526
   16DMF     C2  672   2.718   2.257   3.088 -0.9585 -0.5408 -0.5268
   16DMF     C3  673   2.631   2.020   3.095 -0.5759  0.2902 -0.0779
   16DMF     O1  674   2.542   1.943   3.131 -0.3030  0.0699  0.0013
   16DMF     H1  675   2.472   2.304   3.179  0.2166  0.8532  0.8320
   16DMF     H2  676   2.523   2.200   3.319  1.9017  0.3012 -0.4562
   16DMF     H3  677   2.413   2.135   3.196  0.5595 -0.4569 -0.4008
   16DMF     H4  678   2.680   2.314   3.002  2.9781  0.8648 -1.4738
   16DMF     H5  679   2.817   2.213   3.068 -1.6220 -1.9267 -0.8371
   16DMF     H6  680   2.740   2.326   3.170  1.6620 -0.0084 -1.6196
   16DMF     H7  681   2.716   1.993   3.029 -1.5010 -3.7083  0.2304
   17DMF     C1  682   2.260   2.740   0.313 -0.1742  0.0356  0.0609
   17DMF     N1  683   2.375   2.829   0.333 -0.2061 -0.2985 -0.3565
   17DMF     C2  684   2.347   2.970   0.387 -0.3640 -0.2494  0.5646
   17DMF     C3  685   2.505   2.793   0.284  0.0556 -0.1333 -0.2501
   17DMF     O1  686   2.536   2.683   0.242 -0.4828  0.3965  0.1695
   17DMF     H1  687   2.174   2.768   0.375 -0.2429  1.7542 -0.7829
   17DMF     H2  688   2.284   2.636   0.341  0.0107  0.4650  1.5613
   17DMF     H3  689   2.227   2.741   0.209 -0.4100  0.3307  0.1380
   17DMF     H4  690   2.241   2.994   0.404 -0.1889  0.8834  0.1038
   17DMF     H5  691   2.379   3.046   0.315 -0.1810  0.0279  0.9365
   17DMF     H6  692   2.404   2.981   0.480 -1.3016 -1.5164  1.3153
   17DMF     H7  693   2.581   2.871   0.302 -0.3450  0.0154  0.8045
   18DMF     C1  694   1.359   2.461   1.525 -0.4447  0.3621 -0.1284
   18DMF     N1  695   1.252   2.566   1.540 -0.6610  0.1702  0.1628
   18DMF     C2  696   1.108   2.531   1.524 -1.0420 -0.1270  0.0483
   18DMF     C3  697   1.278   2.697   1.575 -0.0355  0.8015 -1.1751
   18DMF     O1  698   1.390   2.744   1.587 -0.8599 -0.3949 -0.1128
   18DMF     H1  699   1.415   2.425   1.612 -0.0672  3.3832  0.9396
   18DMF     H2  700   1.423   2.497   1.444  0.7993 -0.2690  0.5638
   18DMF     H3  701   1.305   2.371   1.493  0.8133 -0.6728  0.6303
   18DMF     H4  702   1.048   2.621   1.502 -0.9055 -0.2684 -0.9208
   18DMF     H5  703   1.055   2.498   1.615 -0.8501 -1.0800 -0.1861
   18DMF     H6  704   1.099   2.456   1.445  1.4605 -0.1677 -0.2233
   18DMF     H7  705   1.191   2.761   1.598 -0.7154 -0.6483  0.4550
   19DMF     C1  706   0.714   2.867   1.304 -0.2725  0.2512 -0.3465
   19DMF     N1  707   0.727   2.885   1.454  0.7134 -0.3586 -0.2134
   19DMF     C2  708   0.606   2.876   1.535  0.5866  0.0534  0.1898
   19DMF     C3  709   0.848   2.889   1.521  1.0256  0.0767  0.1281
   19DMF     O1  710   0.956   2.870   1.469 -0.1360 -0.6538  0.4543
   19DMF     H1  711   0.611   2.893   1.278 -1.5644 -1.6187  2.6909
   19DMF     H2  712   0.729   2.761   1.280  0.1389  0.0220  0.8997
   19DMF     H3  713   0.782   2.935   1.251 -1.5301  2.2888  0.6052
   19DMF     H4  714   0.561   2.781   1.564  1.6909 -0.5438 -0.0268
   19DMF     H5  715   0.535   2.940   1.481  1.3145  1.3229  0.7141
   19DMF     H6  716   0.609   2.922   1.635 -1.3894  1.6598 -0.4312
   19DMF     H7  717   0.826   2.917   1.625  1.6090 -1.1366  0.5840
   20DMF     C1  718   2.532   2.298   1.486  0.5619  0.1708  0.2508
   20DMF     N1  719   2.572   2.382   1.376  0.1500  0.1279 -0.2523
   20DMF     C2  720   2.564   2.331   1.233 -0.0696  0.3592  0.5097
   20DMF     C3  721   2.627   2.517   1.393  0.0937  0.3810  0.9759
   20DMF     O1  722   2.622   2.572   1.502 -0.0400  0.1218  0.0581
   20DMF     H1  723   2.444   2.346   1.531 -1.0719 -1.0447 -1.5786
   20DMF     H2  724   2.611   2.309   1.562  0.2927 -2.3724  0.9555
   20DMF     H3  725   2.513   2.192   1.465  0.0584 -0.0860  1.8927
   20DMF     H4  726   2.476   2.265   1.237  0.1246  0.1565  2.1512
   20DMF     H5  727   2.647   2.262   1.216 -0.7323 -0.5192  0.7536
   20DMF     H6  728   2.563   2.413   1.162  1.3528  0.0358  0.1114
   20DMF     H7  729   2.662   2.565   1.300 -0.9370  1.0784  0.9406
   21DMF     C1  730   1.522   1.587   0.670  0.4932  0.0640  0.2071
   21DMF     N1  731   1.596   1.560   0.796 -0.2840 -0.2152  0.0269
   21DMF     C2  732   1.745   1.568   0.790 -0.7746 -0.8470  0.3525
   21DMF     C3  733   1.527   1.528   0.915  0.4097  0.2210  0.0473
   21DMF     O1  734   1.406   1.514   0.913  0.9568  0.2217  0.5926
   21DMF     H1  735   1.419   1.549   0.677  0.1781  0.2939 -2.5765
   21DMF     H2  736   1.574   1.552   0.580  0.0360  2.3562 -0.9933
   21DMF     H3  737   1.520   1.692   0.638  1.0818 -0.3392 -1.1960
   21DMF     H4  738   1.779   1.656   0.846  1.0631 -1.9550  1.0251
   21DMF     H5  739   1.780   1.588   0.688 -1.7387  0.6658  0.3081
   21DMF     H6  740   1.793   1.486   0.847  3.6296  0.0505 -1.8354
   21DMF     H7  741   1.593   1.522   1.003  1.0470  1.4292 -0.3377
   22DMF     C1  742   1.524   0.997   0.027  0.1547 -0.3328 -0.4211
   22DMF     N1  743   1.455   0.902   0.114  0.0796  0.3129 -0.0296
   22DMF     C2  744   1.511   0.878   0.248  0.2943 -0.4864 -0.3011
   22DMF     C3  745   1.330   0.848   0.081  0.4238  0.4546 -0.8580
   22DMF     O1  746   1.282   0.880  -0.022 -0.3896  0.2548 -0.1195
   22DMF     H1  747   1.628   1.004   0.060 -0.2122  1.0996  0.4910
   22DMF     H2  748   1.469   1.093   0.033  0.9715  0.1065  0.0753
   22DMF     H3  749   1.516   0.955  -0.074 -2.2251 -1.0706  0.0432
   22DMF     H4  750   1.475   0.955   0.318  2.0182  0.8661 -0.8466
   22DMF     H5  751   1.619   0.856   0.249  0.2132 -0.9171  1.3381
   22DMF     H6  752   1.460   0.788   0.284 -0.5829 -0.4165 -1.3464
   22DMF     H7  753   1.289   0.773   0.151  0.6688  1.1593  0.0525
   23DMF     C1  754   2.782   2.554   0.767  0.3182 -0.4388  0.3374
   23DMF     N1  755   2.736   2.642   0.660  0.3070 -0.1794 -0.2327
   23DMF     C2  756   2.590   2.668   0.644  0.3564 -0.6118  0.6415
   23DMF     C3  757   2.814   2.721   0.580  0.0460 -0.0442  0.0326
   23DMF     O1  758   2.933   2.719   0.575 -0.1793  0.0014  0.0859
   23DMF     H1  759   2.889   2.539   0.785  0.0756 -1.1529  1.2370
   23DMF     H2  760   2.741   2.455   0.745 -0.4715 -0.6683  2.6570
   23DMF     H3  761   2.745   2.583   0.867 -1.7490  0.0954 -0.5682
   23DMF     H4  762   2.566   2.774   0.647 -1.3595 -0.8802 -2.0163
   23DMF     H5  763   2.536   2.610   0.720 -1.1110  0.0076  0.0758
   23DMF     H6  764   2.548   2.628   0.551  1.2036 -2.2384  0.9204
   23DMF     H7  765   2.757   2.779   0.505 -3.0609 -0.8270  1.6988
   24DMF     C1  766   0.004   1.996   0.966  0.2837 -0.3040 -0.2037
   24DMF     N1  767  -0.022   2.128   0.916  0.1694 -0.1142  0.2560
   24DMF     C2  768  -0.085   2.128   0.786 -0.0469  0.0674 -0.7124
   24DMF     C3  769   0.041   2.245   0.962  0.2416  0.1182 -0.0045
   24DMF     O1  770   0.116   2.248   1.058  0.4915 -0.1301 -0.3828
   24DMF     H1  771  -0.088   1.955   1.011  0.9980 -0.4222  1.1538
   24DMF     H2  772   0.088   2.005   1.035 -1.3900 -1.2516  2.0257
   24DMF     H3  773   0.038   1.935   0.881  0.2723  3.9053 -3.4189
   24DMF     H4  774  -0.077   2.226   0.737 -0.2772  2.2420  3.3654
   24DMF     H5  775  -0.190   2.096   0.789 -0.6607  1.7356 -3.0875
   24DMF     H6  776  -0.036   2.056   0.720  2.5886 -0.1401  1.4146
   24DMF     H7  777   0.021   2.336   0.902  1.2449  0.2271 -0.1712
   25DMF     C1  778   0.503   1.279   3.214 -0.1294 -0.3006 -0.2463
   25DMF     N1  779   0.403   1.332   3.121  0.0211  0.5173  0.2280
   25DMF     C2  780   0.410   1.474   3.078  0.2475  0.3714  0.4541
   25DMF     C3  781   0.309   1.247   3.065 -0.2238 -0.6745  0.0971
   25DMF     O1  782   0.313   1.126   3.090 -0.0530  0.2313  0.3978
   25DMF     H1  783   0.579   1.351   3.247 -0.0489 -0.1425 -0.7767
   25DMF     H2  784   0.546   1.188   3.169  0.6027  1.1901 -2.6773
   25DMF     H3  785   0.445   1.244   3.300 -0.5708  0.3890 -0.2621
   25DMF     H4  786   0.475   1.482   2.991 -0.0494  0.0346  0.1979
   25DMF     H5  787   0.459   1.531   3.158  1.8496 -0.5808  0.1655
   25DMF     H6  788   0.309   1.514   3.061  0.8030  1.2997 -0.6637
   25DMF     H7  789   0.238   1.295   2.996  0.9021  0.7372 -0.1018
   26DMF     C1  790   1.255   0.779   1.530 -0.3777  0.4239 -0.9630
   26DMF     N1  791   1.293   0.923   1.564  0.2673 -0.0356 -0.2440
   26DMF     C2  792   1.434   0.969   1.541 -1.2854 -0.3015 -0.0490
   26DMF     C3  793   1.187   1.023   1.564 -0.5443 -0.2458  0.1206
   26DMF     O1  794   1.069   0.993   1.565 -0.2346 -0.2376  0.1273
   26DMF     H1  795   1.341   0.725   1.489 -1.3868 -1.5202 -0.6194
   26DMF     H2  796   1.178   0.769   1.453 -1.1540  0.2200 -0.1784
   26DMF     H3  797   1.229   0.715   1.616 -0.4913  3.9298  1.7116
   26DMF     H4  798   1.496   0.962   1.631 -1.2058  0.7586 -0.0080
   26DMF     H5  799   1.418   1.075   1.518  1.5771  0.0931 -0.4753
   26DMF     H6  800   1.480   0.907   1.463 -2.3878 -0.5036 -0.5404
   26DMF     H7  801   1.231   1.125   1.561 -0.7696 -0.1789 -1.0863
   27DMF     C1  802   1.698   1.857   1.013  0.6830  0.2157  0.0357
   27DMF     N1  803   1.561   1.830   1.045 -0.2741  0.5137  0.5506
   27DMF     C2  804   1.464   1.876   0.945  0.2265  0.3992 -0.3152
   27DMF     C3  805   1.525   1.770   1.168  0.7342 -0.0115  0.6593
   27DMF     O1  806   1.607   1.736   1.255 -0.4948  0.3793  0.1652
   27DMF     H1  807   1.756   1.766   1.036  0.9431  0.2492 -0.4889
   27DMF     H2  808   1.729   1.941   1.077 -1.1346  0.6756  0.3420
   27DMF     H3  809   1.705   1.879   0.906 -0.3406 -1.1632 -0.3323
   27DMF     H4  810   1.443   1.981   0.968 -0.8910  0.2350 -0.5236
   27DMF     H5  811   1.373   1.814   0.952  1.5543 -1.3732  1.7436
   27DMF     H6  812   1.514   1.864   0.848  2.5291  1.5960  0.6849
   27DMF     H7  813   1.419   1.739   1.173  0.9227 -0.8544 -0.5434
   28DMF     C1  814   1.751   0.802   1.586 -0.0315  0.2867 -0.5445
   28DMF     N1  815   1.729   0.840   1.449  0.4064  0.6434  0.0952
   28DMF     C2  816   1.692   0.729   1.357 -0.2425 -0.8474  0.9697
   28DMF     C3  817   1.744   0.969   1.407  0.1293  0.4093 -0.1519
   28DMF     O1  818   1.748   1.067   1.482  0.0563 -0.2146 -0.3148
   28DMF     H1  819   1.785   0.888   1.645 -0.9290  0.9385 -0.9649
   28DMF     H2  820   1.823   0.719   1.594  0.4984  0.8108  0.2358
   28DMF     H3  821   1.664   0.760   1.635  1.2533 -2.9854 -0.9569
   28DMF     H4  822   1.588   0.695   1.360  0.6408 -4.0939 -1.7918
   28DMF     H5  823   1.755   0.639   1.368 -0.3455 -1.5000 -2.9995
   28DMF     H6  824   1.726   0.766   1.260 -1.1688 -0.7596  0.6796
   28DMF     H7  825   1.750   0.986   1.297  2.1058 -0.1252 -0.1434
   29DMF     C1  826   1.019   0.481   1.531 -0.0640  0.4372  0.7342
   29DMF     N1  827   0.893   0.549   1.557 -0.4179 -0.1149  0.0205
   29DMF     C2  828   0.890   0.696   1.576  0.4571  0.6491  0.2337
   29DMF     C3  829   0.772   0.480   1.583 -0.2580 -0.4573 -0.5298
   29DMF     O1  830   0.762   0.356   1.570 -0.6466 -0.1259 -0.1493
   29DMF     H1  831   1.068   0.466   1.628 -1.0659 -0.4460  1.1249
   29DMF     H2  832   1.083   0.539   1.464  3.5274 -3.4817  0.5779
   29DMF     H3  833   1.002   0.379   1.493 -2.3167  1.5181 -1.2622
   29DMF     H4  834   0.796   0.729   1.621  0.5092  2.7362 -1.1298
   29DMF     H5  835   0.915   0.745   1.481 -2.4305  0.7308 -0.5204
   29DMF     H6  836   0.965   0.715   1.654  2.0629 -4.5904  0.1652
   29DMF     H7  837   0.687   0.540   1.620 -0.2204 -0.2365 -0.8052
   30DMF     C1  838   1.809   0.124   1.425  0.0055  0.2449  0.1327
   30DMF     N1  839   1.807   0.006   1.518  0.0348  0.1123 -0.0758
   30DMF     C2  840   1.939  -0.071   1.535 -0.1638 -0.4644 -0.0886
   30DMF     C3  841   1.690  -0.055   1.561 -0.6655 -0.1444 -0.4704
   30DMF     O1  842   1.578  -0.002   1.552 -0.6024 -0.2512 -0.4117
   30DMF     H1  843   1.715   0.130   1.368 -1.6239 -0.7636  2.6151
   30DMF     H2  844   1.898   0.111   1.364  0.6486 -1.6763  1.4355
   30DMF     H3  845   1.821   0.210   1.493  0.8695 -1.3321  2.0093
   30DMF     H4  846   1.985  -0.091   1.437 -1.0889 -1.7272 -0.2661
   30DMF     H5  847   1.913  -0.166   1.582  0.2021 -0.3758  0.2895
   30DMF     H6  848   2.011  -0.014   1.594 -1.8143  1.1337  0.4335
   30DMF     H7  849   1.700  -0.159   1.598  0.7704  0.2093  0.1434
   31DMF     C1  850   0.467   2.684   3.464  0.1896  0.4466 -0.3732
   31DMF     N1  851   0.495   2.823   3.482  0.3187 -0.2130 -0.3831
   31DMF     C2  852   0.450   2.885   3.609 -0.2331  0.2162  0.1949
   31DMF     C3  853   0.558   2.912   3.389  0.3231 -0.0236  0.0085
   31DMF     O1  854   0.585   2.883   3.277 -0.1359  0.6080  0.8347
   31DMF     H1  855   0.359   2.667   3.471  0.4108  0.0212  2.1304
   31DMF     H2  856   0.512   2.613   3.533  0.2770 -2.0129 -2.8736
   31DMF     H3  857   0.501   2.653   3.364  2.5279  0.3164  0.4421
   31DMF     H4  858   0.382   2.821   3.666 -1.8911  2.2499  0.5703
   31DMF     H5  859   0.405   2.984   3.592 -0.0727  0.3929  0.8126
   31DMF     H6  860   0.542   2.893   3.667  0.2680 -1.0941 -0.4079
   31DMF     H7  861   0.574   3.010   3.437 -1.1363 -1.3471  3.3114
   32DMF     C1  862   0.857   1.614   0.505  0.3868 -0.5615  0.4454
   32DMF     N1  863   0.793   1.487   0.452 -0.2036  0.3773 -0.2726
   32DMF     C2  864   0.852   1.409   0.342 -0.6816  0.1756 -0.3235
   32DMF     C3  865   0.687   1.436   0.527  0.1653 -0.7040  0.4486
   32DMF     O1  866   0.651   1.482   0.637  0.3372  0.3382 -0.3439
   32DMF     H1  867   0.963   1.627   0.480  0.2896  1.2299  0.9158
   32DMF     H2  868   0.845   1.609   0.614  1.0891  0.2804  0.5667
   32DMF     H3  869   0.794   1.701   0.484  1.5867  0.3116  0.3490
   32DMF     H4  870   0.848   1.302   0.366  3.4289 -0.0249 -0.2382
   32DMF     H5  871   0.950   1.452   0.320  0.3276 -1.0538  1.5575
   32DMF     H6  872   0.791   1.425   0.252 -1.1972  0.9254  0.1471
   32DMF     H7  873   0.639   1.349   0.477  0.9896 -0.5850 -0.5704
   33DMF     C1  874   0.060   3.372   0.350  0.5242  0.1954 -0.2439
   33DMF     N1  875   0.167   3.279   0.320  0.4811  0.0020 -0.0623
   33DMF     C2  876   0.196   3.186   0.431  0.4206 -0.2369  0.5756
   33DMF     C3  877   0.216   3.267   0.191 -0.8010 -0.7323 -0.2549
   33DMF     O1  878   0.185   3.343   0.104  0.1101 -0.4251 -0.5265
   33DMF     H1  879  -0.014   3.391   0.271  0.5331 -1.7233 -0.7280
   33DMF     H2  880   0.102   3.470   0.376 -1.2974  0.1953  2.8569
   33DMF     H3  881   0.001   3.340   0.436  1.6141  0.7948  0.7430
   33DMF     H4  882   0.235   3.251   0.511  1.1574  0.4363 -0.3181
   33DMF     H5  883   0.269   3.109   0.404  2.3377  1.9254 -0.6311
   33DMF     H6  884   0.103   3.142   0.469 -0.4585  1.4269  0.4280
   33DMF     H7  885   0.293   3.188   0.187 -0.0985 -0.0203 -1.1126
   34DMF     C1  886   2.836   0.976   0.839 -0.5178 -0.0102  0.0520
   34DMF     N1  887   2.835   0.840   0.782  0.0259 -0.3842  0.4306
   34DMF     C2  888   2.719   0.757   0.801 -0.1952  0.6961  0.0774
   34DMF     C3  889   2.950   0.782   0.730  0.0878  0.2253  0.0003
   34DMF     O1  890   3.053   0.836   0.705  0.1056 -0.5216 -0.0708
   34DMF     H1  891   2.874   0.970   0.942  0.9141  0.4923 -0.4467
   34DMF     H2  892   2.729   1.004   0.840 -1.0102 -1.7660 -1.3932
   34DMF     H3  893   2.892   1.051   0.783  0.0679 -1.5553 -1.4518
   34DMF     H4  894   2.635   0.824   0.823 -1.1465 -0.5402  0.2080
   34DMF     H5  895   2.734   0.694   0.889 -1.3621 -0.9500 -0.8779
   34DMF     H6  896   2.693   0.696   0.714  0.5980 -1.1753  1.1379
   34DMF     H7  897   2.940   0.672   0.718 -0.1745  0.2382  0.1041
   35DMF     C1  898   1.905   2.861   3.699 -0.0709  0.9190  0.1890
   35DMF     N1  899   1.928   3.002   3.674 -0.6430  0.3606  0.3850
   35DMF     C2  900   1.855   3.063   3.561  0.3747 -0.0427 -0.1260
   35DMF     C3  901   2.002   3.081   3.765 -0.1996  0.5937  0.0984
   35DMF     O1  902   2.060   3.029   3.861  0.3505  0.0147 -0.2612
   35DMF     H1  903   1.992   2.802   3.670  0.0550  0.5933  1.2000
   35DMF     H2  904   1.834   2.822   3.625 -0.7611  1.2092  0.6960
   35DMF     H3  905   1.868   2.843   3.800 -1.0284  0.0758 -0.3085
   35DMF     H4  906   1.901   3.157   3.527 -0.6956  0.4883 -0.1286
   35DMF     H5  907   1.750   3.071   3.593  0.7149 -2.2962  1.6591
   35DMF     H6  908   1.858   2.994   3.476  0.3164  1.0011 -0.9966
   35DMF     H7  909   2.007   3.185   3.730  2.6515  0.3639 -0.2963
   36DMF     C1  910   2.227   3.341   0.326  0.6397  0.3744 -0.2913
   36DMF     N1  911   2.305   3.467   0.360 -0.6624 -0.1081 -0.0380
   36DMF     C2  912   2.227   3.582   0.396  0.0097  0.1587  0.5395
   36DMF     C3  913   2.438   3.476   0.333 -0.4956 -0.2533 -0.3111
   36DMF     O1  914   2.509   3.385   0.306  0.0706  0.0886  0.0101
   36DMF     H1  915   2.251   3.257   0.392 -1.9075 -0.8335 -0.8481
   36DMF     H2  916   2.235   3.301   0.224 -0.6417  1.2623 -0.7537
   36DMF     H3  917   2.119   3.357   0.343  1.0698  2.6452  0.4719
   36DMF     H4  918   2.155   3.595   0.314 -0.1425 -2.2583  0.2602
   36DMF     H5  919   2.278   3.679   0.399 -0.8180  0.5567  2.5700
   36DMF     H6  920   2.179   3.557   0.492  0.0866  1.7650  1.0084
   36DMF     H7  921   2.469   3.581   0.350 -0.8060 -0.1885 -0.1512
   37DMF     C1  922   0.334   2.977   1.042 -0.2788  0.9719 -0.1477
   37DMF     N1  923   0.269   2.935   0.920 -0.4831 -0.3053  0.3881
   37DMF     C2  924   0.277   2.792   0.891  0.3076  0.1260  0.4373
   37DMF     C3  925   0.196   3.029   0.838 -0.5038  0.3261 -0.3040
   37DMF     O1  926   0.185   3.152   0.872 -0.2370 -0.0088 -0.1108
   37DMF     H1  927   0.263   3.043   1.094 -0.0450  1.6860 -0.7362
   37DMF     H2  928   0.425   3.037   1.029 -0.0584  0.9029  1.0022
   37DMF     H3  929   0.355   2.898   1.115 -0.9883 -0.5422 -1.5432
   37DMF     H4  930   0.308   2.745   0.985  0.8303  3.1949  1.8625
   37DMF     H5  931   0.351   2.779   0.811  0.9651  0.2933  1.0139
   37DMF     H6  932   0.174   2.763   0.867 -0.2733  1.6081  1.0777
   37DMF     H7  933   0.143   2.978   0.756  0.1081  1.2422 -1.2804
   38DMF     C1  934   0.836   1.852   0.079 -0.1531 -0.2552  0.6303
   38DMF     N1  935   0.734   1.744   0.089  0.3597 -0.0199  0.3222
   38DMF     C2  936   0.596   1.782   0.114 -0.0210  0.7049  0.2456
   38DMF     C3  937   0.775   1.608   0.087 -0.1578  0.5906  0.3533
   38DMF     O1  938   0.889   1.574   0.069  0.5969 -0.3250 -0.0406
   38DMF     H1  939   0.851   1.896   0.178  1.6872  0.5365  0.0041
   38DMF     H2  940   0.801   1.929   0.009  2.2249 -0.0304 -0.3488
   38DMF     H3  941   0.925   1.804   0.036 -0.5727 -2.8185  2.4937
   38DMF     H4  942   0.588   1.847   0.201 -1.1606  2.3230 -1.0481
   38DMF     H5  943   0.534   1.698   0.147 -0.5458  0.9286 -0.1633
   38DMF     H6  944   0.552   1.829   0.025 -1.3439  2.0158  1.5612
   38DMF     H7  945   0.691   1.536   0.092 -1.0816  1.5298 -1.2072
   39DMF     C1  946   3.229   0.845   1.455 -0.3018 -0.1295  0.1705
   39DMF     N1  947   3.293   0.739   1.535 -0.9010 -0.3334 -0.1559
   39DMF     C2  948   3.214   0.617   1.562  0.4998  0.0519  0.2017
   39DMF     C3  949   3.429   0.759   1.569  0.2320 -0.2584 -0.4681
   39DMF     O1  950   3.500   0.840   1.512  0.7006  0.1654  0.1069
   39DMF     H1  951   3.221   0.930   1.524  1.9346  1.4505 -1.4467
   39DMF     H2  952   3.126   0.818   1.427  0.3569 -0.5160 -1.9597
   39DMF     H3  953   3.287   0.858   1.363  1.5154 -0.9122  1.1854
   39DMF     H4  954   3.117   0.647   1.604  0.5151  2.5338 -1.4493
   39DMF     H5  955   3.273   0.560   1.635  0.6391  1.1272  0.9397
   39DMF     H6  956   3.209   0.558   1.470 -1.4551  0.5533 -0.0357
   39DMF     H7  957   3.472   0.684   1.638 -1.0584 -2.2892 -1.8147
   40DMF     C1  958   0.271   1.281   1.253 -0.0581 -0.1735  0.4364
   40DMF     N1  959   0.241   1.212   1.133  0.2374  0.1849 -0.0356
   40DMF     C2  960   0.169   1.078   1.144  0.2202  0.3106  0.2441
   40DMF     C3  961   0.238   1.271   1.009  0.0112  0.8870 -0.6639
   40DMF     O1  962   0.272   1.386   0.993 -0.1932 -0.8118  0.3996
   40DMF     H1  963   0.241   1.226   1.343  1.7151 -2.1940 -0.1645
   40DMF     H2  964   0.230   1.382   1.264 -0.7423 -0.5515  1.4900
   40DMF     H3  965   0.379   1.297   1.258  0.0919 -1.4201  1.4427
   40DMF     H4  966   0.135   1.060   1.247 -0.8875  0.0579 -0.1559
   40DMF     H5  967   0.240   0.995   1.134 -1.0208 -0.6059 -1.2463
   40DMF     H6  968   0.080   1.068   1.080  0.8257 -2.2808 -0.2755
   40DMF     H7  969   0.209   1.203   0.927 -0.7049  0.2176  0.1325
   41DMF     C1  970   2.929   1.734   3.097  0.0370  0.2583  0.4332
   41DMF     N1  971   3.042   1.810   3.044  0.1704  0.6586  0.1977
   41DMF     C2  972   3.177   1.747   3.050  0.3748  0.0257 -0.0239
   41DMF     C3  973   3.019   1.911   2.949 -0.4877  0.2057 -0.0736
   41DMF     O1  974   2.911   1.955   2.917  0.3920 -0.5203  0.2011
   41DMF     H1  975   2.838   1.787   3.064  1.8278  2.7568 -0.6793
   41DMF     H2  976   2.936   1.729   3.206  1.7398 -0.4832  0.3042
   41DMF     H3  977   2.918   1.635   3.052 -2.7133  0.3671  0.7872
   41DMF     H4  978   3.248   1.828   3.071  3.1793 -2.6630  1.1958
   41DMF     H5  979   3.215   1.690   2.965  0.2945 -0.9881  0.6136
   41DMF     H6  980   3.179   1.678   3.136 -0.0212  0.1099  0.0566
   41DMF     H7  981   3.119   1.946   2.915 -0.3226  1.4247  1.6152
   42DMF     C1  982   0.589   0.609   0.040 -0.0276  0.0175 -0.2075
   42DMF     N1  983   0.662   0.684   0.144  0.1405 -0.5181 -0.0831
   42DMF     C2  984   0.812   0.677   0.153  0.6450  0.2501  0.6266
   42DMF     C3  985   0.599   0.760   0.249 -0.2886  0.4291 -0.3928
   42DMF     O1  986   0.479   0.776   0.244  0.5608  0.2660  0.5413
   42DMF     H1  987   0.505   0.554   0.084  1.2853 -1.2333  0.7838
   42DMF     H2  988   0.659   0.545  -0.014  0.0046 -0.4593  0.3891
   42DMF     H3  989   0.545   0.674  -0.036 -4.5995 -3.3349 -0.5691
   42DMF     H4  990   0.846   0.659   0.256  1.3834 -0.9559  0.1866
   42DMF     H5  991   0.864   0.767   0.118  0.6907  0.3771  1.0195
   42DMF     H6  992   0.858   0.596   0.094 -1.2205  0.3840 -1.0346
   42DMF     H7  993   0.664   0.792   0.332 -0.3387 -0.4368 -0.0209
   43DMF     C1  994   0.664   1.257   3.768  0.4800  0.2084  0.0092
   43DMF     N1  995   0.631   1.129   3.709 -0.1113 -1.1166  0.0988
   43DMF     C2  996   0.600   1.016   3.786  0.2760  0.3911 -0.1600
   43DMF     C3  997   0.601   1.128   3.575 -0.2306  0.9355 -0.2182
   43DMF     O1  998   0.595   1.225   3.506 -0.1381 -0.0981 -0.5682
   43DMF     H1  999   0.651   1.347   3.707  1.1087  0.5185  0.3303
   43DMF     H2 1000   0.764   1.257   3.812 -0.0983 -1.8546  1.3791
   43DMF     H3 1001   0.599   1.271   3.855  1.4998 -0.6272  0.9231
   43DMF     H4 1002   0.600   0.926   3.723  0.3527 -0.6341  1.2604
   43DMF     H5 1003   0.498   1.021   3.828 -0.3689 -3.2270 -1.0831
   43DMF     H6 1004   0.665   1.017   3.874 -0.0752 -2.6235  0.2183
   43DMF     H7 1005   0.574   1.024   3.549  0.9697 -0.2443  3.0344
   44DMF     C1 1006   0.008   1.249   1.516 -0.9396 -0.0927 -0.2921
   44DMF     N1 1007   0.038   1.388   1.550  0.5787 -0.7113 -0.4291
   44DMF     C2 1008  -0.070   1.485   1.539  0.2451 -0.1285  0.7101
   44DMF     C3 1009   0.170   1.437   1.565  0.0119 -0.0193  0.2157
   44DMF     O1 1010   0.268   1.360   1.577 -0.3649  0.7090 -0.1420
   44DMF     H1 1011   0.009   1.225   1.409 -0.8087  2.1230 -0.8091
   44DMF     H2 1012  -0.097   1.241   1.544 -0.8645  0.6410  0.2007
   44DMF     H3 1013   0.066   1.175   1.573 -0.5788 -0.1366 -0.7085
   44DMF     H4 1014  -0.045   1.592   1.531 -1.2432  0.2159  0.4542
   44DMF     H5 1015  -0.141   1.475   1.622  0.7833 -0.8663  1.0844
   44DMF     H6 1016  -0.126   1.465   1.447 -0.0653  0.7179  0.7053
   44DMF     H7 1017   0.171   1.547   1.582  0.5235  0.1467 -0.8509
   45DMF     C1 1018   1.017   1.330   3.674 -0.1608 -0.7243  0.1391
   45DMF     N1 1019   1.098   1.207   3.661 -0.0830  0.1140 -0.0242
   45DMF     C2 1020   1.029   1.071   3.670 -0.1369 -0.1366 -0.0815
   45DMF     C3 1021   1.240   1.206   3.674  0.3036  0.0085 -0.2182
   45DMF     O1 1022   1.304   1.304   3.703 -0.4773  0.1135 -0.2079
   45DMF     H1 1023   0.955   1.336   3.584  0.3663  0.8177 -0.1341
   45DMF     H2 1024   1.084   1.416   3.686  0.0672 -0.9803  0.7136
   45DMF     H3 1025   0.951   1.317   3.761 -0.2368  0.3473  0.2505
   45DMF     H4 1026   0.932   1.085   3.719 -0.4036 -1.5565 -0.1763
   45DMF     H5 1027   1.087   0.992   3.720  0.0040 -0.6037 -0.9739
   45DMF     H6 1028   1.007   1.029   3.571 -1.4307 -0.6668  0.4161
   45DMF     H7 1029   1.278   1.103   3.661 -0.0596 -0.2238  0.5409
   46DMF     C1 1030   2.989   3.057   1.541 -0.3361  0.1158 -1.0789
   46DMF     N1 1031   2.976   3.094   1.402 -0.1262  0.2870  0.7231
   46DMF     C2 1032   3.081   3.052   1.306  0.3637  0.4168  0.0036
   46DMF     C3 1033   2.886   3.191   1.368  0.1712  0.0566  0.5033
   46DMF     O1 1034   2.815   3.229   1.459  0.4566 -0.0496  0.0338
   46DMF     H1 1035   2.890   3.033   1.582  1.3341 -2.1304  1.7920
   46DMF     H2 1036   3.028   3.142   1.599  1.0316 -2.9612  2.7170
   46DMF     H3 1037   3.050   2.967   1.554 -1.3737 -0.5837 -1.0220
   46DMF     H4 1038   3.055   2.962   1.250 -0.5167 -0.1942  1.3625
   46DMF     H5 1039   3.175   3.025   1.357  1.3532  0.0236 -1.9923
   46DMF     H6 1040   3.105   3.131   1.234  1.0050 -0.9548 -1.3272
   46DMF     H7 1041   2.883   3.213   1.260  1.5192  3.1728  1.0475
   47DMF     C1 1042   2.766   2.916   0.960 -0.2611  0.3450 -0.3098
   47DMF     N1 1043   2.856   2.841   1.045  0.1195  1.2126  0.2890
   47DMF     C2 1044   2.968   2.780   0.971  0.9921  0.5412 -0.6622
   47DMF     C3 1045   2.827   2.802   1.178 -0.0600 -0.2423 -0.8087
   47DMF     O1 1046   2.726   2.846   1.240 -0.3580 -0.0254  0.6107
   47DMF     H1 1047   2.728   3.002   1.017  3.0027  1.9357 -0.4360
   47DMF     H2 1048   2.691   2.845   0.922 -1.4162  1.3737  0.0006
   47DMF     H3 1049   2.815   2.961   0.873 -0.3826  2.8200  0.8590
   47DMF     H4 1050   3.021   2.700   1.025  1.1249  0.2921 -1.1608
   47DMF     H5 1051   3.031   2.868   0.956  1.0687  0.6124  0.0303
   47DMF     H6 1052   2.937   2.739   0.874 -0.6624  0.1259  0.0186
   47DMF     H7 1053   2.896   2.737   1.235 -2.4068  0.2588  2.7921
   48DMF     C1 1054   3.324   2.654   1.082 -0.2426 -0.2342 -0.1411
   48DMF     N1 1055   3.393   2.769   1.131 -0.3933  0.0313 -0.2987
   48DMF     C2 1056   3.504   2.741   1.234  0.0193 -0.9037 -0.4526
   48DMF     C3 1057   3.360   2.904   1.096  0.0000 -0.5308  0.5770
   48DMF     O1 1058   3.273   2.932   1.014  0.6906 -0.1826 -0.2253
   48DMF     H1 1059   3.223   2.685   1.053  0.0026 -0.3820 -1.1743
   48DMF     H2 1060   3.335   2.571   1.153  3.2235  0.8015  0.6102
   48DMF     H3 1061   3.374   2.622   0.989  1.9292  0.7387  0.6587
   48DMF     H4 1062   3.511   2.632   1.246 -0.0515 -0.9057 -0.4296
   48DMF     H5 1063   3.487   2.780   1.335  0.6130 -0.1356 -0.6476
   48DMF     H6 1064   3.598   2.778   1.192  0.2456 -0.7048  0.2298
   48DMF     H7 1065   3.422   2.984   1.140 -0.9508  0.6516 -0.1716
   49DMF     C1 1066   1.041   0.563   0.581 -0.4444  0.4115  0.4156
   49DMF     N1 1067   0.960   0.650   0.670 -0.4969  0.1668  0.4066
   49DMF     C2 1068   0.990   0.655   0.809 -0.4033 -0.5320 -0.3890
   49DMF     C3 1069   0.853   0.731   0.622 -0.3332  0.3900  0.2951
   49DMF     O1 1070   0.821   0.728   0.503  0.8290 -0.4333  0.1924
   49DMF     H1 1071   0.991   0.478   0.532 -1.0234  1.0221 -0.0556
   49DMF     H2 1072   1.135   0.533   0.630  0.1749 -2.5847 -2.4164
   49DMF     H3 1073   1.066   0.623   0.493  0.2827  1.0138  1.0242
   49DMF     H4 1074   1.064   0.581   0.841 -0.4073 -1.2967 -2.0635
   49DMF     H5 1075   0.897   0.633   0.864  0.9672  0.0178  2.2142
   49DMF     H6 1076   1.025   0.756   0.832  0.0167 -0.6810 -0.3690
   49DMF     H7 1077   0.812   0.793   0.703 -0.2286 -0.5313  1.0638
   50DMF     C1 1078   0.555   1.779   0.627 -0.3012  0.3057 -0.2288
   50DMF     N1 1079   0.425   1.824   0.679  0.2488 -0.2553 -0.1363
   50DMF     C2 1080   0.403   1.834   0.827  0.1080  0.0264  0.1511
   50DMF     C3 1081   0.327   1.876   0.590  0.3965 -0.3088  0.0603
   50DMF     O1 1082   0.324   1.865   0.470  0.3258 -0.1535 -0.3169
   50DMF     H1 1083   0.626   1.744   0.703 -0.5711 -2.3251 -1.1088
   50DMF     H2 1084   0.608   1.845   0.557  0.9281  0.3989  0.7613
   50DMF     H3 1085   0.532   1.691   0.564  0.7198  0.3933 -0.7470
   50DMF     H4 1086   0.407   1.942   0.844 -0.7438 -0.1331  1.3836
   50DMF     H5 1087   0.489   1.796   0.883 -1.3317 -2.9495  0.4517
   50DMF     H6 1088   0.308   1.785   0.853 -0.6898  0.1241 -2.4198
   50DMF     H7 1089   0.247   1.929   0.644  0.6618 -0.7653  0.9046
   51DMF     C1 1090   3.225   3.012   0.367 -0.1116  0.9355  0.0320
   51DMF     N1 1091   3.073   3.012   0.330 -0.5678 -0.0448 -0.3462
   51DMF     C2 1092   3.003   2.894   0.286  0.1618 -0.2365  0.0253
   51DMF     C3 1093   3.008   3.132   0.324  0.7084 -0.1030  0.4983
   51DMF     O1 1094   3.065   3.236   0.357 -0.5969 -0.3065  0.0382
   51DMF     H1 1095   3.272   2.955   0.286 -1.0250  0.6522 -0.3132
   51DMF     H2 1096   3.233   2.948   0.455 -0.1882 -1.6229 -1.7628
   51DMF     H3 1097   3.268   3.112   0.383 -0.8865  1.1911  0.5821
   51DMF     H4 1098   2.918   2.874   0.354 -0.4000  0.3076 -0.5137
   51DMF     H5 1099   3.081   2.818   0.293  1.9039  1.4560 -0.5370
   51DMF     H6 1100   2.976   2.909   0.181  1.1535 -2.5119 -0.5844
   51DMF     H7 1101   2.901   3.125   0.297  0.8651  1.6116 -0.6459
   52DMF     C1 1102   2.239   1.850   3.510 -0.2716 -0.6453  0.1011
   52DMF     N1 1103   2.163   1.980   3.492 -0.3796 -0.3397  0.0335
   52DMF     C2 1104   2.240   2.095   3.512 -0.1695  0.6301  0.4613
   52DMF     C3 1105   2.032   1.983   3.443 -0.2860 -0.5960  0.0530
   52DMF     O1 1106   1.972   1.878   3.414 -0.1694  0.3681  0.3439
   52DMF     H1 1107   2.346   1.854   3.487 -0.6912  1.7796 -1.7205
   52DMF     H2 1108   2.191   1.765   3.459  0.0608 -0.9143  0.2410
   52DMF     H3 1109   2.240   1.812   3.613  2.1645 -2.0483 -0.4119
   52DMF     H4 1110   2.324   2.090   3.442 -0.6784 -1.5336 -0.0306
   52DMF     H5 1111   2.262   2.100   3.620 -0.3769  0.8002  0.4962
   52DMF     H6 1112   2.178   2.183   3.489  0.1854  0.6115 -0.5997
   52DMF     H7 1113   1.989   2.085   3.437  2.0777  0.4012 -0.4231
   53DMF     C1 1114   2.021   1.293   1.308 -0.0362 -0.1521 -0.5053
   53DMF     N1 1115   2.052   1.363   1.430  0.5263 -0.1206  0.1293
   53DMF     C2 1116   1.968   1.323   1.545  0.1900  0.6294 -0.2373
   53DMF     C3 1117   2.154   1.454   1.433 -0.2950  0.1020 -0.5810
   53DMF     O1 1118   2.228   1.483   1.342 -0.5322  0.0997 -0.1117
   53DMF     H1 1119   1.918   1.257   1.302  0.1575 -0.5784 -1.4425
   53DMF     H2 1120   2.074   1.197   1.302 -0.1797 -0.1679 -1.7713
   53DMF     H3 1121   2.050   1.364   1.229  1.8143  0.5276  0.7280
   53DMF     H4 1122   1.972   1.214   1.557  0.7278  0.7317  0.5832
   53DMF     H5 1123   1.868   1.365   1.529 -0.7157 -1.7230 -0.9333
   53DMF     H6 1124   2.008   1.365   1.638 -0.0315 -3.9416  2.0370
   53DMF     H7 1125   2.154   1.500   1.534 -2.4209  0.0231 -0.5192
   54DMF     C1 1126   3.081   2.254   2.847  0.4603  0.8909  0.4252
   54DMF     N1 1127   3.085   2.321   2.983  0.2798  0.2806 -0.3591
   54DMF     C2 1128   2.984   2.429   3.003  0.0544 -0.3437  0.2879
   54DMF     C3 1129   3.186   2.289   3.076 -0.1004  0.0063  1.3110
   54DMF     O1 1130   3.277   2.210   3.054  0.0592  0.0040 -0.0644
   54DMF     H1 1131   2.988   2.203   2.823  1.4709 -0.3089 -1.0424
   54DMF     H2 1132   3.159   2.176   2.846 -0.5645 -0.1546  1.3164
   54DMF     H3 1133   3.116   2.322   2.768  0.0374 -0.9397 -1.3800
   54DMF     H4 1134   3.022   2.532   3.008 -0.0944 -0.2916  0.3788
   54DMF     H5 1135   2.941   2.412   3.103 -1.6912  0.9433 -0.2194
   54DMF     H6 1136   2.904   2.427   2.928 -0.3610 -1.4959  0.7450
   54DMF     H7 1137   3.170   2.340   3.173 -2.6960  1.9101 -0.0635
   55DMF     C1 1138   1.743   2.967   0.663 -0.2620 -0.1453  0.3371
   55DMF     N1 1139   1.756   3.119   0.655  0.6272  0.8869  0.4600
   55DMF     C2 1140   1.889   3.183   0.649 -0.5321  0.4969 -0.1073
   55DMF     C3 1141   1.645   3.194   0.664  0.3117 -0.4919 -0.0145
   55DMF     O1 1142   1.532   3.144   0.669 -0.2156  0.5963 -0.5006
   55DMF     H1 1143   1.763   2.930   0.765  1.4997  0.6067  0.2781
   55DMF     H2 1144   1.817   2.917   0.600  0.7284  0.4454  1.0046
   55DMF     H3 1145   1.645   2.924   0.639  0.4085 -1.2584 -0.4573
   55DMF     H4 1146   1.896   3.204   0.541  0.1452  0.4723 -0.0704
   55DMF     H5 1147   1.966   3.109   0.672 -1.3620 -0.3119  0.1127
   55DMF     H6 1148   1.901   3.285   0.685 -2.8002  0.9708 -0.5787
   55DMF     H7 1149   1.657   3.304   0.665  0.9502 -0.5602  0.9877
   56DMF     C1 1150   1.955   1.400   3.513 -0.2609 -0.6817 -0.2209
   56DMF     N1 1151   2.085   1.330   3.534 -0.2408 -0.0350 -0.4710
   56DMF     C2 1152   2.083   1.188   3.507 -0.0959 -0.3574  0.0398
   56DMF     C3 1153   2.186   1.396   3.602 -0.2320 -0.2813  0.3254
   56DMF     O1 1154   2.187   1.512   3.643  0.8362  0.2090  0.6612
   56DMF     H1 1155   1.979   1.506   3.498  0.2382 -0.7551  0.0486
   56DMF     H2 1156   1.898   1.380   3.605  0.8858 -1.5010  0.3175
   56DMF     H3 1157   1.899   1.377   3.421 -0.5803 -0.6199 -0.0451
   56DMF     H4 1158   2.009   1.168   3.428 -0.4068  0.2133  0.1823
   56DMF     H5 1159   2.045   1.125   3.588 -0.8721 -2.2874 -1.7562
   56DMF     H6 1160   2.177   1.142   3.472 -1.0625 -1.9561 -0.5073
   56DMF     H7 1161   2.278   1.335   3.608  1.6249  2.2319 -1.1650
   57DMF     C1 1162   3.005   1.291   1.496 -0.6196  0.1660 -0.1957
   57DMF     N1 1163   2.983   1.156   1.443 -0.0495  0.2481  0.1925
   57DMF     C2 1164   2.900   1.068   1.517 -0.7861 -0.5578 -0.3846
   57DMF     C3 1165   3.061   1.100   1.344 -0.2485 -0.2415 -0.3298
   57DMF     O1 1166   3.142   1.164   1.291 -0.3135  0.5233  0.3198
   57DMF     H1 1167   2.990   1.368   1.419 -0.5668  0.4348  0.0576
   57DMF     H2 1168   3.107   1.298   1.534 -0.4070  1.5821 -0.9596
   57DMF     H3 1169   2.935   1.308   1.579 -0.0082  1.1686  0.1274
   57DMF     H4 1170   2.887   0.974   1.461  0.2266 -0.8315 -0.1601
   57DMF     H5 1171   2.804   1.107   1.552  0.9203  0.8010  2.9703
   57DMF     H6 1172   2.957   1.031   1.603  0.5802  1.4851 -0.3638
   57DMF     H7 1173   3.040   0.994   1.321 -2.9904 -0.0598  1.1178
   58DMF     C1 1174   0.234   3.198   1.552 -0.0839  0.5373 -0.0786
   58DMF     N1 1175   0.085   3.178   1.559 -0.7260 -0.4299 -0.7328
   58DMF     C2 1176   0.031   3.045   1.544  0.2620  0.2844  0.2804
   58DMF     C3 1177  -0.003   3.288   1.566  0.5758 -0.0661  0.9115
   58DMF     O1 1178   0.026   3.406   1.549 -0.0312  0.1397  0.1583
   58DMF     H1 1179   0.270   3.286   1.497  1.3405  0.4284  0.6591
   58DMF     H2 1180   0.280   3.114   1.500 -1.3453 -0.1219 -0.1422
   58DMF     H3 1181   0.271   3.210   1.655  2.9678  1.0158 -1.1958
   58DMF     H4 1182  -0.063   3.041   1.601 -0.5744  0.5634 -1.0556
   58DMF     H5 1183   0.094   2.970   1.593  1.3272  1.0391  0.0908
   58DMF     H6 1184   0.013   3.012   1.441 -0.0873 -0.2361  0.5095
   58DMF     H7 1185  -0.107   3.252   1.577 -0.1759  1.5035 -0.8508
   59DMF     C1 1186   0.244   1.889   1.243 -0.7333 -0.1631 -0.0971
   59DMF     N1 1187   0.233   1.746   1.204 -0.5684  0.4800  0.3682
   59DMF     C2 1188   0.361   1.665   1.200  0.2202  0.2254  0.0203
   59DMF     C3 1189   0.110   1.677   1.194  0.1697  0.0845  0.0855
   59DMF     O1 1190  -0.002   1.724   1.210  0.3604  0.3359 -0.3787
   59DMF     H1 1191   0.271   1.947   1.154 -0.6209 -0.9798 -0.6040
   59DMF     H2 1192   0.323   1.896   1.318 -2.1128  1.5959  1.2346
   59DMF     H3 1193   0.153   1.937   1.281  0.8679  2.5416  0.4045
   59DMF     H4 1194   0.348   1.557   1.219 -0.9340  0.5363  1.0482
   59DMF     H5 1195   0.431   1.700   1.277 -2.4288  1.7636  1.8014
   59DMF     H6 1196   0.412   1.686   1.106  2.3604  1.2605  1.3806
   59DMF     H7 1197   0.124   1.569   1.172 -0.0725 -0.1342  0.9674
   60DMF     C1 1198   1.589   2.219   2.808 -0.5132  0.3103 -0.8717
   60DMF     N1 1199   1.621   2.332   2.730  0.4858 -0.1339 -0.7284
   60DMF     C2 1200   1.759   2.376   2.714  0.3602 -0.0458  0.4665
   60DMF     C3 1201   1.524   2.394   2.644  0.9008  0.2955  0.3796
   60DMF     O1 1202   1.404   2.361   2.634  0.1327  0.4061 -0.3593
   60DMF     H1 1203   1.481   2.218   2.829 -0.3392  1.0508  0.0983
   60DMF     H2 1204   1.640   2.236   2.904 -2.3126  0.5178  0.0805
   60DMF     H3 1205   1.623   2.135   2.746 -1.4698 -0.6938 -0.0545
   60DMF     H4 1206   1.779   2.369   2.607 -2.5017  2.0628 -0.2740
   60DMF     H5 1207   1.831   2.330   2.783  0.7627  1.4547  1.0530
   60DMF     H6 1208   1.786   2.479   2.740 -0.4942  0.1620  0.5529
   60DMF     H7 1209   1.559   2.493   2.611 -0.8646  0.7833 -0.0491
   61DMF     C1 1210   0.980   1.104   1.021 -0.5189 -0.2920 -0.1973
   61DMF     N1 1211   1.068   1.038   1.120  0.4930 -0.0791 -0.8133
   61DMF     C2 1212   1.058   1.089   1.255 -0.0479  0.0895  0.0664
   61DMF     C3 1213   1.175   0.959   1.086  0.8633 -0.2557 -0.0030
   61DMF     O1 1214   1.193   0.907   0.979  0.1122  0.3052  0.2498
   61DMF     H1 1215   0.929   1.031   0.957 -0.4603 -1.5661  1.1503
   61DMF     H2 1216   1.033   1.177   0.959  0.6804 -0.3479  0.7371
   61DMF     H3 1217   0.911   1.161   1.085 -0.7040 -0.5895 -0.1289
   61DMF     H4 1218   1.055   1.198   1.262  0.1209  0.1364 -0.5227
   61DMF     H5 1219   1.138   1.046   1.317  1.2757  1.4711 -0.6401
   61DMF     H6 1220   0.967   1.047   1.299  0.6437 -0.6530  0.8161
   61DMF     H7 1221   1.251   0.957   1.165  0.7174  1.4561  0.1819
   62DMF     C1 1222   1.399   2.416   0.969  0.0558  0.2540 -0.1183
   62DMF     N1 1223   1.391   2.293   0.884 -0.3304  0.0200  0.5669
   62DMF     C2 1224   1.263   2.239   0.842  0.0177 -0.1470 -0.3001
   62DMF     C3 1225   1.504   2.240   0.814  0.2658 -0.0793  0.6833
   62DMF     O1 1226   1.616   2.290   0.822  0.6474  0.3984  0.1113
   62DMF     H1 1227   1.485   2.397   1.035  0.1468 -0.0087 -0.3111
   62DMF     H2 1228   1.312   2.424   1.035  1.1078  0.1980  1.2994
   62DMF     H3 1229   1.412   2.508   0.912 -0.9800 -0.3135 -1.3096
   62DMF     H4 1230   1.185   2.303   0.884 -0.8265 -0.3638 -1.4893
   62DMF     H5 1231   1.262   2.132   0.866 -1.8198 -0.3310 -1.0700
   62DMF     H6 1232   1.257   2.260   0.734 -1.5005  0.5507 -0.0914
   62DMF     H7 1233   1.477   2.142   0.772  1.2396  0.2330 -0.7004
   63DMF     C1 1234   1.274   3.284   1.477  0.0276  0.2643 -0.6499
   63DMF     N1 1235   1.259   3.147   1.530  0.0071 -0.1043 -0.2026
   63DMF     C2 1236   1.378   3.059   1.550 -0.0718 -1.0830  0.3419
   63DMF     C3 1237   1.136   3.104   1.579  0.3918  0.4211  0.2563
   63DMF     O1 1238   1.037   3.173   1.576  0.0393 -0.4330  0.6037
   63DMF     H1 1239   1.241   3.283   1.372 -2.7342 -1.8249  0.1817
   63DMF     H2 1240   1.380   3.311   1.481 -0.2916  1.2454  2.2052
   63DMF     H3 1241   1.225   3.361   1.539  1.0637 -1.6208  2.6187
   63DMF     H4 1242   1.374   3.013   1.649  0.2177 -0.0688  0.8290
   63DMF     H5 1243   1.475   3.110   1.545  0.3181 -1.9223 -0.8998
   63DMF     H6 1244   1.374   2.979   1.475 -1.3108 -0.0531 -0.7276
   63DMF     H7 1245   1.132   3.000   1.616 -0.9983  0.8652  1.4136
   64DMF     C1 1246   2.195   0.006   0.771 -0.0175 -0.1627  0.5421
   64DMF     N1 1247   2.125   0.013   0.903 -1.2634 -0.1645 -1.0304
   64DMF     C2 1248   2.042  -0.098   0.944  0.9363  0.0050 -0.1949
   64DMF     C3 1249   2.156   0.121   0.998  0.1848  0.1950  0.1683
   64DMF     O1 1250   2.237   0.210   0.975 -0.1658 -0.0517 -0.0392
   64DMF     H1 1251   2.164   0.096   0.717  1.4761  0.8788  1.3964
   64DMF     H2 1252   2.159  -0.084   0.719 -0.4827  0.4555 -0.2177
   64DMF     H3 1253   2.305   0.007   0.779 -0.0165 -0.6508  0.5987
   64DMF     H4 1254   1.946  -0.053   0.917  2.2408  1.8194 -1.9250
   64DMF     H5 1255   2.034  -0.114   1.052 -0.3738 -1.8488 -0.5381
   64DMF     H6 1256   2.081  -0.186   0.891  0.1035 -2.5993  3.3591
   64DMF     H7 1257   2.081   0.112   1.079 -0.5262 -1.9225 -0.6640
   65DMF     C1 1258   2.185   1.937   0.288 -0.6462  0.2547  0.7568
   65DMF     N1 1259   2.275   1.870   0.186  0.1097 -0.4065 -0.6831
   65DMF     C2 1260   2.322   1.960   0.075  0.3281  0.0181 -0.0054
   65DMF     C3 1261   2.284   1.728   0.170 -0.1674  0.0471 -0.2171
   65DMF     O1 1262   2.245   1.659   0.263 -0.3684 -0.5415 -0.2208
   65DMF     H1 1263   2.220   2.036   0.321  2.8489 -1.9166  3.8433
   65DMF     H2 1264   2.176   1.870   0.374 -1.2171 -3.2140 -1.9153
   65DMF     H3 1265   2.086   1.943   0.241  0.0409 -1.0175 -0.8910
   65DMF     H4 1266   2.423   1.989   0.107 -0.0857  0.5252  0.8608
   65DMF     H5 1267   2.252   2.044   0.065 -1.5652 -1.6261 -1.0678
   65DMF     H6 1268   2.314   1.911  -0.023  0.2573  0.8908 -0.4420
   65DMF     H7 1269   2.329   1.704   0.072 -0.2715  2.4253 -0.8918
   66DMF     C1 1270   3.022   1.892   0.598  0.0019  0.1477  0.2492
   66DMF     N1 1271   3.116   1.793   0.650  0.1464 -0.4490  0.0232
   66DMF     C2 1272   3.107   1.757   0.791 -0.1928 -0.0125  0.4256
   66DMF     C3 1273   3.215   1.743   0.566 -0.1344 -0.2575  0.4721
   66DMF     O1 1274   3.206   1.750   0.447 -0.1474  0.3104  0.8337
   66DMF     H1 1275   2.957   1.940   0.673 -0.2389 -0.0665  0.1780
   66DMF     H2 1276   2.952   1.853   0.523  0.8846 -1.4641  0.2551
   66DMF     H3 1277   3.083   1.977   0.567  0.6274 -0.3462  0.1343
   66DMF     H4 1278   3.134   1.652   0.808 -0.4063 -0.0173  0.7453
   66DMF     H5 1279   3.005   1.770   0.829  0.1745  0.2811  1.3188
   66DMF     H6 1280   3.169   1.819   0.857 -0.1127  1.1475 -0.7191
   66DMF     H7 1281   3.297   1.691   0.621 -0.8566 -0.1685  1.6450
   67DMF     C1 1282   2.752   2.753   3.700  0.1806  0.3666 -0.0483
   67DMF     N1 1283   2.837   2.711   3.589  0.3400  0.1205  0.0014
   67DMF     C2 1284   2.815   2.574   3.535  0.2160 -1.0620 -0.6080
   67DMF     C3 1285   2.944   2.785   3.550  0.0243 -0.8167 -0.8272
   67DMF     O1 1286   2.975   2.890   3.610 -0.2055  0.6856  0.0430
   67DMF     H1 1287   2.788   2.714   3.796 -0.8893 -0.3356  0.0695
   67DMF     H2 1288   2.650   2.714   3.694 -0.5227  1.7228  2.1587
   67DMF     H3 1289   2.747   2.863   3.698  0.2702  0.3608 -0.7417
   67DMF     H4 1290   2.825   2.570   3.426 -1.2625 -0.6919 -0.7709
   67DMF     H5 1291   2.715   2.535   3.557 -0.4875  0.6028 -0.7807
   67DMF     H6 1292   2.890   2.511   3.583  1.2627  0.5660 -0.0442
   67DMF     H7 1293   3.001   2.752   3.461 -1.6140 -1.2601 -1.7224
   68DMF     C1 1294   2.195   0.761   0.801  0.3974  0.6624  0.2963
   68DMF     N1 1295   2.119   0.787   0.672  0.0493 -1.3172 -0.1068
   68DMF     C2 1296   1.979   0.823   0.694 -0.0768 -0.6889  0.4384
   68DMF     C3 1297   2.184   0.790   0.546  0.7411 -0.3696  0.7970
   68DMF     O1 1298   2.303   0.765   0.535 -0.4271 -0.6826 -0.9068
   68DMF     H1 1299   2.162   0.824   0.885 -0.7890 -0.0765  0.3957
   68DMF     H2 1300   2.302   0.781   0.785  0.8026 -2.2340 -0.9664
   68DMF     H3 1301   2.172   0.657   0.825  1.4397  0.1029 -1.0319
   68DMF     H4 1302   1.974   0.932   0.690  2.6314 -0.4656  2.1783
   68DMF     H5 1303   1.950   0.789   0.794 -1.5790 -0.4972  0.0857
   68DMF     H6 1304   1.917   0.768   0.621 -1.3283 -0.9644  1.6895
   68DMF     H7 1305   2.123   0.809   0.457 -0.3274 -0.5052  1.4951
   69DMF     C1 1306   2.766   1.804   3.486  0.4369  0.1336  0.0301
   69DMF     N1 1307   2.734   1.761   3.631 -0.0425  0.1667 -0.0854
   69DMF     C2 1308   2.616   1.814   3.699  0.3698 -0.1673 -0.1074
   69DMF     C3 1309   2.825   1.689   3.700  0.1323  0.2924  0.1868
   69DMF     O1 1310   2.920   1.642   3.645  0.0261  0.6617  0.0473
   69DMF     H1 1311   2.691   1.877   3.452  0.4423 -0.1499 -0.6078
   69DMF     H2 1312   2.756   1.713   3.425  1.9901 -0.9367  1.3250
   69DMF     H3 1313   2.871   1.834   3.488  0.2621  1.4505 -5.2273
   69DMF     H4 1314   2.661   1.870   3.782  1.6124  0.3701 -1.1306
   69DMF     H5 1315   2.552   1.731   3.731  2.1350 -1.4239  0.2420
   69DMF     H6 1316   2.561   1.878   3.629 -1.1360  1.1078  2.1494
   69DMF     H7 1317   2.799   1.666   3.805  0.5450  1.1382  0.4733
   70DMF     C1 1318   0.083   2.123   1.472  0.4892  0.0608  0.0413
   70DMF     N1 1319  -0.011   2.013   1.515 -0.2624 -0.2678 -0.2280
   70DMF     C2 1320   0.027   1.869   1.535 -0.4616 -0.1348  0.0030
   70DMF     C3 1321  -0.144   2.040   1.545 -0.0209 -0.0581 -0.6708
   70DMF     O1 1322  -0.183   2.156   1.567 -0.3387 -0.4637  0.4660
   70DMF     H1 1323   0.122   2.171   1.563  2.2301 -0.3593 -0.4634
   70DMF     H2 1324   0.021   2.195   1.417  0.0080 -1.9493 -2.1524
   70DMF     H3 1325   0.169   2.089   1.412  0.5603  0.7800 -0.2607
   70DMF     H4 1326   0.066   1.848   1.635 -1.2598 -0.2189  0.3026
   70DMF     H5 1327   0.105   1.841   1.463 -2.6276 -3.5860 -1.1412
   70DMF     H6 1328  -0.062   1.806   1.532 -0.6496  0.1669 -0.9384
   70DMF     H7 1329  -0.199   1.947   1.565  2.1583 -1.4612 -1.0595
   71DMF     C1 1330   2.776   1.657   0.360  0.8991 -1.1406 -0.0160
   71DMF     N1 1331   2.661   1.564   0.367  0.2745  0.0112 -0.1189
   71DMF     C2 1332   2.674   1.448   0.283 -0.0099 -0.4557  0.0273
   71DMF     C3 1333   2.541   1.607   0.431 -0.4535 -0.0810 -0.0980
   71DMF     O1 1334   2.533   1.715   0.490  0.3459  0.1549  0.0972
   71DMF     H1 1335   2.861   1.598   0.394  1.0605 -0.5209  0.6700
   71DMF     H2 1336   2.762   1.748   0.419  0.1323 -0.3103 -1.4346
   71DMF     H3 1337   2.791   1.697   0.259  1.9690 -0.2006  0.5114
   71DMF     H4 1338   2.581   1.391   0.295 -1.5425  1.7373 -1.0423
   71DMF     H5 1339   2.749   1.376   0.317  0.3496 -0.3976 -0.6371
   71DMF     H6 1340   2.695   1.475   0.178  0.7749  1.6450  0.7056
   71DMF     H7 1341   2.459   1.533   0.435 -0.8999  0.3222 -1.3585
   72DMF     C1 1342   2.619   0.394   0.616 -0.4249 -0.5999 -0.4589
   72DMF     N1 1343   2.493   0.395   0.678 -0.4345  0.3471  0.6968
   72DMF     C2 1344   2.442   0.519   0.726  0.2166 -0.3420 -0.9742
   72DMF     C3 1345   2.423   0.286   0.716  0.6522  0.4644 -0.1568
   72DMF     O1 1346   2.465   0.170   0.707 -0.1700  0.0047  0.6052
   72DMF     H1 1347   2.689   0.442   0.685 -2.7661  3.7812 -0.9297
   72DMF     H2 1348   2.622   0.439   0.516 -5.1864  2.2655  0.5115
   72DMF     H3 1349   2.650   0.289   0.603  0.3117 -0.3481 -0.7722
   72DMF     H4 1350   2.332   0.518   0.723  0.2139 -1.3602 -0.5733
   72DMF     H5 1351   2.485   0.604   0.671  1.1788  2.0713  3.3061
   72DMF     H6 1352   2.468   0.540   0.831 -2.8935  0.5388 -0.3255
   72DMF     H7 1353   2.333   0.322   0.769  0.9079  1.7681 -0.5840
   73DMF     C1 1354   1.594   0.536   1.019 -0.3969  0.4387 -0.7013
   73DMF     N1 1355   1.470   0.600   1.041  0.3730 -0.2486 -0.0006
   73DMF     C2 1356   1.460   0.736   1.091  1.3724  0.2489 -0.0414
   73DMF     C3 1357   1.361   0.549   0.984  0.3845 -0.1663  0.5304
   73DMF     O1 1358   1.350   0.444   0.919 -0.4044  0.4561  0.0712
   73DMF     H1 1359   1.572   0.440   0.970  0.5180 -0.6202  0.9100
   73DMF     H2 1360   1.645   0.513   1.114 -1.2176 -0.0921 -0.3858
   73DMF     H3 1361   1.663   0.594   0.956  0.9954  0.6621  0.9940
   73DMF     H4 1362   1.378   0.736   1.163  2.8115 -0.9601  1.6340
   73DMF     H5 1363   1.444   0.814   1.015  3.5126  2.5144  1.7823
   73DMF     H6 1364   1.555   0.758   1.141  1.4555  0.5469 -0.3229
   73DMF     H7 1365   1.280   0.624   0.985  1.5652  1.1571 -0.5627
   74DMF     C1 1366   0.143   0.624   3.784  0.4749 -0.0070  0.3247
   74DMF     N1 1367   0.179   0.733   3.880  0.6071 -0.0608 -0.0057
   74DMF     C2 1368   0.162   0.713   4.025  0.1727  0.5325  0.1980
   74DMF     C3 1369   0.248   0.844   3.837 -0.0842  0.8581  0.5632
   74DMF     O1 1370   0.286   0.870   3.722  0.1690 -0.0524 -0.7009
   74DMF     H1 1371   0.133   0.654   3.679 -3.2657 -1.6942  0.1352
   74DMF     H2 1372   0.047   0.576   3.806  0.2607  0.8231  1.2571
   74DMF     H3 1373   0.223   0.549   3.792  1.7604  1.5241  2.5934
   74DMF     H4 1374   0.087   0.637   4.050 -0.4430  1.4523  1.2049
   74DMF     H5 1375   0.135   0.806   4.077  2.1737  0.8586  0.7153
   74DMF     H6 1376   0.261   0.679   4.059  0.5130 -1.6930 -2.8193
   74DMF     H7 1377   0.275   0.915   3.917  2.1687 -0.6857  1.2349
   75DMF     C1 1378   1.302   0.452   3.501  0.8129  0.1604  0.5648
   75DMF     N1 1379   1.185   0.519   3.552 -0.4782 -0.2076  0.3537
   75DMF     C2 1380   1.158   0.517   3.700  0.0333 -0.1041 -0.1677
   75DMF     C3 1381   1.101   0.592   3.472 -0.5083  0.2034 -0.6492
   75DMF     O1 1382   1.116   0.602   3.356  0.3519 -0.6068  0.4155
   75DMF     H1 1383   1.270   0.380   3.424 -0.5767  0.3446  0.9552
   75DMF     H2 1384   1.350   0.404   3.587  0.1148  0.4725  1.1270
   75DMF     H3 1385   1.366   0.531   3.459 -1.5941  1.7269 -0.2932
   75DMF     H4 1386   1.229   0.468   3.768  1.6580  0.7390 -1.2052
   75DMF     H5 1387   1.063   0.463   3.703 -1.6026  2.6294 -0.6456
   75DMF     H6 1388   1.144   0.622   3.728 -0.1577 -0.0885 -0.3204
   75DMF     H7 1389   1.020   0.647   3.525 -0.4590  0.6644 -1.0526
   76DMF     C1 1390   0.873   0.422   1.212 -0.1250  0.2925 -0.2084
   76DMF     N1 1391   0.874   0.556   1.157  0.3535 -0.2717  0.7420
   76DMF     C2 1392   0.753   0.634   1.140  0.0291  0.9499  0.0800
   76DMF     C3 1393   0.994   0.620   1.137 -0.5645 -0.2273 -0.1319
   76DMF     O1 1394   1.105   0.588   1.176  0.1339 -0.2533  0.0844
   76DMF     H1 1395   0.967   0.409   1.266  1.0816  0.8863 -2.1363
   76DMF     H2 1396   0.862   0.340   1.140  1.4230  0.0500 -0.1807
   76DMF     H3 1397   0.789   0.415   1.283  0.1226  0.7810  0.1345
   76DMF     H4 1398   0.753   0.711   1.061  0.3023  1.1413  0.2684
   76DMF     H5 1399   0.720   0.682   1.233 -1.9791 -1.3265  0.5782
   76DMF     H6 1400   0.670   0.566   1.117 -0.0937  1.7116 -1.9383
   76DMF     H7 1401   0.984   0.708   1.071 -1.1692 -0.7294 -0.7121
   77DMF     C1 1402   0.619   1.942   1.141  0.6786  0.2448  1.1942
   77DMF     N1 1403   0.652   1.975   1.001 -0.5030  0.5358 -0.8806
   77DMF     C2 1404   0.632   2.110   0.964 -0.0617  0.1626 -0.8753
   77DMF     C3 1405   0.744   1.894   0.926  0.0041  0.2174 -0.3545
   77DMF     O1 1406   0.787   1.783   0.957  0.1385  0.9492 -0.1906
   77DMF     H1 1407   0.640   2.025   1.209  2.2330  0.9270 -0.1047
   77DMF     H2 1408   0.672   1.858   1.187 -0.2504 -0.8059  0.3847
   77DMF     H3 1409   0.511   1.922   1.149  0.0787  1.7462 -2.2444
   77DMF     H4 1410   0.670   2.119   0.861  0.9822 -4.5156 -1.0401
   77DMF     H5 1411   0.687   2.176   1.032  2.3582 -2.4101 -0.2329
   77DMF     H6 1412   0.529   2.133   0.934  0.4104  1.2194 -1.7242
   77DMF     H7 1413   0.765   1.949   0.833  3.1600 -1.6942 -0.8323
   78DMF     C1 1414   0.187   3.306   1.205 -0.1756  0.1759 -0.7413
   78DMF     N1 1415   0.072   3.393   1.230 -0.1299  0.2196 -0.0686
   78DMF     C2 1416   0.093   3.534   1.236  0.2639  0.1368  0.1454
   78DMF     C3 1417  -0.051   3.338   1.272  0.7844  0.0850  0.2212
   78DMF     O1 1418  -0.068   3.217   1.287 -0.1086  0.2563  0.1626
   78DMF     H1 1419   0.274   3.373   1.197  1.0256 -1.3102 -0.3487
   78DMF     H2 1420   0.172   3.258   1.108 -1.7123 -0.2711 -0.2950
   78DMF     H3 1421   0.208   3.235   1.286 -3.1964 -0.1165 -0.1506
   78DMF     H4 1422   0.006   3.584   1.192  1.4004  0.0996 -2.1923
   78DMF     H5 1423   0.184   3.564   1.183 -0.2357  0.8296 -0.3427
   78DMF     H6 1424   0.099   3.564   1.342 -1.2492 -0.8348  0.5182
   78DMF     H7 1425  -0.123   3.419   1.296  1.2494  0.8581 -0.9442
   79DMF     C1 1426   1.197   3.077   1.158 -0.1537 -0.3153  0.2743
   79DMF     N1 1427   1.242   3.126   1.025 -0.3325  0.3802  0.6961
   79DMF     C2 1428   1.180   3.241   0.977 -0.6824  0.5283  0.0398
   79DMF     C3 1429   1.329   3.048   0.947 -0.0193  0.1536 -0.0670
   79DMF     O1 1430   1.375   2.944   0.988 -0.1259 -0.2314  0.1595
   79DMF     H1 1431   1.135   2.991   1.131 -1.5703  1.2137 -1.4073
   79DMF     H2 1432   1.146   3.159   1.210  0.2762 -0.2658  0.6277
   79DMF     H3 1433   1.283   3.044   1.218 -0.1676 -0.6577  0.1016
   79DMF     H4 1434   1.237   3.290   0.896  1.4211 -0.1162  1.0882
   79DMF     H5 1435   1.177   3.310   1.062 -1.0654 -0.7689  1.0902
   79DMF     H6 1436   1.080   3.222   0.937 -1.5539  0.4680  2.2122
   79DMF     H7 1437   1.340   3.085   0.843  0.9779 -0.2563 -0.1168
   80DMF     C1 1438   1.867   2.515   0.416 -0.2238  0.6915  0.0565
   80DMF     N1 1439   1.896   2.524   0.560  0.6407  0.3197 -0.0795
   80DMF     C2 1440   1.872   2.407   0.640 -0.0662  0.0182 -0.1663
   80DMF     C3 1441   1.969   2.626   0.612 -0.1596  0.3468  0.3866
   80DMF     O1 1442   1.986   2.732   0.552 -1.0964 -0.2192  0.3754
   80DMF     H1 1443   1.815   2.604   0.379 -3.4659 -1.7110 -1.4042
   80DMF     H2 1444   1.815   2.425   0.381  2.4611 -0.8749  0.0028
   80DMF     H3 1445   1.962   2.523   0.363 -0.2950 -2.1364 -0.5529
   80DMF     H4 1446   1.937   2.323   0.610 -1.4448 -0.7011 -1.2475
   80DMF     H5 1447   1.768   2.374   0.622 -0.7897  3.2068 -2.2143
   80DMF     H6 1448   1.872   2.434   0.746  0.3960  0.9969 -0.4178
   80DMF     H7 1449   2.022   2.596   0.705 -0.7434 -0.1476  0.5565
   81DMF     C1 1450   0.595   3.221   1.271 -1.1822 -0.4025 -0.5720
   81DMF     N1 1451   0.710   3.210   1.369 -0.3993  0.8981 -0.0645
   81DMF     C2 1452   0.856   3.197   1.319 -0.5709  0.3396 -0.0346
   81DMF     C3 1453   0.685   3.227   1.511  0.2571 -0.6544  0.0713
   81DMF     O1 1454   0.568   3.237   1.547 -0.4394 -0.5818 -0.0866
   81DMF     H1 1455   0.514   3.157   1.308 -0.2578 -1.5201 -0.4134
   81DMF     H2 1456   0.625   3.198   1.168  1.4605 -0.6463  0.2186
   81DMF     H3 1457   0.568   3.326   1.282  0.7120 -0.1188  2.0537
   81DMF     H4 1458   0.924   3.258   1.379  0.2988 -1.0600  0.4262
   81DMF     H5 1459   0.863   3.219   1.211  0.9779  1.0902  0.2059
   81DMF     H6 1460   0.896   3.096   1.329  1.1792  1.0800  0.5274
   81DMF     H7 1461   0.774   3.218   1.576 -0.5246 -1.3696  1.0602
   82DMF     C1 1462   2.642   3.250   3.693 -0.6229 -0.0721  0.1547
   82DMF     N1 1463   2.570   3.167   3.787 -0.6637 -0.0137 -0.2469
   82DMF     C2 1464   2.650   3.080   3.887  0.0124  0.2662  0.5867
   82DMF     C3 1465   2.429   3.169   3.784  0.3911 -0.6532  0.3347
   82DMF     O1 1466   2.357   3.202   3.688  0.1887 -0.8944 -0.0849
   82DMF     H1 1467   2.601   3.351   3.704 -2.8822 -0.9334 -0.0679
   82DMF     H2 1468   2.622   3.222   3.589 -0.4658 -2.5548  0.7643
   82DMF     H3 1469   2.750   3.234   3.703 -0.4528 -0.9572 -2.7180
   82DMF     H4 1470   2.647   3.131   3.984  2.1928  1.3118  0.1402
   82DMF     H5 1471   2.756   3.078   3.860 -0.2143 -0.8356 -0.2043
   82DMF     H6 1472   2.610   2.978   3.889  3.2350 -1.1060 -1.3298
   82DMF     H7 1473   2.389   3.117   3.873  0.8549 -0.0104  0.9212
   83DMF     C1 1474   1.905   2.824   1.512 -0.1261 -0.2142 -0.5818
   83DMF     N1 1475   1.762   2.792   1.559  0.4203  0.0374 -0.0716
   83DMF     C2 1476   1.723   2.648   1.581  0.0699  0.4104 -0.0450
   83DMF     C3 1477   1.675   2.898   1.568  0.0392 -0.7981 -0.3156
   83DMF     O1 1478   1.709   3.008   1.532  0.1104 -0.2438 -0.0951
   83DMF     H1 1479   1.963   2.733   1.495 -1.2771 -0.8316 -1.2982
   83DMF     H2 1480   1.949   2.889   1.587 -0.3448 -3.3715  2.3931
   83DMF     H3 1481   1.894   2.883   1.419 -1.7565  1.2465  0.4925
   83DMF     H4 1482   1.616   2.653   1.604 -0.1064  0.0370 -0.7847
   83DMF     H5 1483   1.770   2.608   1.672  1.7723 -0.2775 -1.2172
   83DMF     H6 1484   1.748   2.589   1.492 -1.0915 -0.5227  0.2406
   83DMF     H7 1485   1.576   2.868   1.608 -0.2458  1.0984  0.4050
   84DMF     C1 1486   2.045   1.566   1.013  0.0218  0.0072 -0.1305
   84DMF     N1 1487   1.968   1.616   1.134 -0.0867  0.0493 -0.1447
   84DMF     C2 1488   2.021   1.741   1.199  0.0093  0.3654 -0.4306
   84DMF     C3 1489   1.854   1.545   1.182 -0.4337 -0.1326 -0.0897
   84DMF     O1 1490   1.803   1.447   1.129 -0.2508  0.7264  0.1149
   84DMF     H1 1491   1.974   1.515   0.946  0.5733 -0.7663 -0.1459
   84DMF     H2 1492   2.124   1.501   1.053  1.6042  2.7712  1.3805
   84DMF     H3 1493   2.086   1.649   0.954 -0.9004 -0.6743 -1.7906
   84DMF     H4 1494   2.101   1.783   1.136 -0.3937 -0.5053 -1.5365
   84DMF     H5 1495   2.069   1.704   1.291  1.4944 -1.2169 -1.7841
   84DMF     H6 1496   1.942   1.808   1.234 -0.4107  0.2638 -1.1754
   84DMF     H7 1497   1.813   1.593   1.273 -0.8571 -1.2156  0.3023
   85DMF     C1 1498   1.115   1.207   0.604 -0.0346 -0.3530 -0.7618
   85DMF     N1 1499   1.035   1.276   0.702 -0.1505  0.2734 -0.1586
   85DMF     C2 1500   1.104   1.364   0.796 -0.1956 -0.2126  0.1554
   85DMF     C3 1501   0.893   1.257   0.711 -0.0478 -0.7012  0.0192
   85DMF     O1 1502   0.833   1.204   0.621  0.4843 -0.2706 -0.3399
   85DMF     H1 1503   1.090   1.100   0.607  0.2492 -0.4705 -2.0277
   85DMF     H2 1504   1.218   1.211   0.641 -0.7128 -0.2954  1.1927
   85DMF     H3 1505   1.096   1.248   0.504 -2.0676 -0.3968 -0.4206
   85DMF     H4 1506   1.033   1.428   0.850  0.3130 -0.4854  1.1563
   85DMF     H5 1507   1.186   1.422   0.754  0.1871 -0.6180  0.3441
   85DMF     H6 1508   1.157   1.311   0.876 -1.0729 -0.3139  0.6738
   85DMF     H7 1509   0.842   1.307   0.796  1.5371  1.2764 -0.1340
   86DMF     C1 1510   1.485   2.745   3.363 -0.3254 -0.0391  0.8729
   86DMF     N1 1511   1.448   2.769   3.505 -0.2131  0.1078 -0.4154
   86DMF     C2 1512   1.538   2.700   3.601 -0.9337 -0.0717 -0.3118
   86DMF     C3 1513   1.344   2.847   3.552 -0.6943  0.1345 -0.2275
   86DMF     O1 1514   1.270   2.894   3.468  0.0352 -0.4655 -0.5671
   86DMF     H1 1515   1.572   2.680   3.350 -1.1766 -0.8094 -1.2036
   86DMF     H2 1516   1.513   2.843   3.320 -1.0848  0.1244  0.7433
   86DMF     H3 1517   1.396   2.695   3.322 -0.5823  0.9651  0.1733
   86DMF     H4 1518   1.483   2.613   3.637 -1.5992  0.5559  0.1923
   86DMF     H5 1519   1.565   2.766   3.685  2.4890 -0.5101 -0.9718
   86DMF     H6 1520   1.628   2.664   3.548  0.1969  2.2179 -0.0452
   86DMF     H7 1521   1.330   2.852   3.661  0.2152  1.0134 -0.1415
   87DMF     C1 1522   1.397   1.843   3.731  0.0890  0.0761 -0.7583
   87DMF     N1 1523   1.285   1.754   3.690 -0.6420 -0.2755  0.4553
   87DMF     C2 1524   1.258   1.729   3.548  0.5700  0.1798  0.4103
   87DMF     C3 1525   1.210   1.683   3.781 -0.2593  0.1178 -0.3934
   87DMF     O1 1526   1.247   1.681   3.898  0.0688  0.1445 -0.2024
   87DMF     H1 1527   1.399   1.929   3.664 -1.1009 -1.8328 -3.3204
   87DMF     H2 1528   1.493   1.790   3.737 -0.5887 -1.8007 -4.8293
   87DMF     H3 1529   1.372   1.881   3.831  0.4284  0.0350 -0.6587
   87DMF     H4 1530   1.250   1.621   3.532  0.6113  0.3516 -0.8457
   87DMF     H5 1531   1.339   1.774   3.489 -1.2955  0.7399 -1.8102
   87DMF     H6 1532   1.167   1.775   3.506  0.4077 -0.3724  0.1629
   87DMF     H7 1533   1.124   1.638   3.728  0.8656  1.2235 -3.2462
   88DMF     C1 1534   1.592   2.161   1.291 -0.1343 -0.4987  0.1356
   88DMF     N1 1535   1.681   2.227   1.395 -0.5341 -0.8579 -0.2162
   88DMF     C2 1536   1.807   2.283   1.347  1.0306 -0.0326  0.9858
   88DMF     C3 1537   1.655   2.226   1.533  0.5737 -0.2155 -0.2726
   88DMF     O1 1538   1.570   2.160   1.589  0.3526 -0.1536  0.0909
   88DMF     H1 1539   1.586   2.227   1.204 -0.3937 -2.8683 -1.6771
   88DMF     H2 1540   1.493   2.146   1.336  0.2705 -4.1792 -0.0471
   88DMF     H3 1541   1.640   2.064   1.277  1.4593  0.3822 -0.7561
   88DMF     H4 1542   1.823   2.372   1.410 -2.5435  0.9241  0.6322
   88DMF     H5 1543   1.778   2.324   1.250  1.9094  0.9951  1.1484
   88DMF     H6 1544   1.892   2.215   1.335  1.8437  1.3662 -1.5659
   88DMF     H7 1545   1.731   2.282   1.590  2.2689 -1.2564 -1.4540
   89DMF     C1 1546   2.385   0.108   3.404  0.0302 -0.1576 -0.2583
   89DMF     N1 1547   2.355   0.243   3.353  0.0866  0.4730  0.4153
   89DMF     C2 1548   2.389   0.356   3.438 -0.1764  0.5761  0.1395
   89DMF     C3 1549   2.268   0.264   3.241 -0.2064  0.0791 -0.1749
   89DMF     O1 1550   2.236   0.169   3.173 -0.3972 -0.0327  0.4988
   89DMF     H1 1551   2.433   0.045   3.329  1.5339 -0.3404  0.8305
   89DMF     H2 1552   2.291   0.065   3.441 -1.0822  3.2139  0.9786
   89DMF     H3 1553   2.456   0.114   3.488 -1.3741  2.1823  0.7980
   89DMF     H4 1554   2.300   0.417   3.457 -1.5250 -1.4070  0.3808
   89DMF     H5 1555   2.477   0.413   3.405 -1.8281  2.5105 -1.0180
   89DMF     H6 1556   2.407   0.325   3.542  0.6442 -0.1448 -0.2107
   89DMF     H7 1557   2.230   0.365   3.219 -0.7433  0.6786  3.2661
   90DMF     C1 1558   3.088   0.214   1.538 -0.0063  0.4771  0.0619
   90DMF     N1 1559   2.996   0.097   1.554  0.3587  0.1204 -0.1358
   90DMF     C2 1560   3.065  -0.033   1.565 -0.0173  0.1247 -0.7242
   90DMF     C3 1561   2.862   0.112   1.562 -0.5052 -0.1222  0.4355
   90DMF     O1 1562   2.814   0.225   1.567 -0.5253 -0.4895  0.2198
   90DMF     H1 1563   3.060   0.294   1.609 -1.4904  0.3892 -0.4053
   90DMF     H2 1564   3.086   0.240   1.432  0.3262  0.6436  0.0965
   90DMF     H3 1565   3.193   0.194   1.562 -0.1182 -0.4622 -0.2425
   90DMF     H4 1566   3.009  -0.103   1.628  0.6744  0.0723 -0.1539
   90DMF     H5 1567   3.158  -0.024   1.624  0.4413 -1.0170 -1.2642
   90DMF     H6 1568   3.104  -0.084   1.477 -3.1831 -3.8967  0.0489
   90DMF     H7 1569   2.808   0.017   1.578  0.2784 -0.4882  0.9454
   91DMF     C1 1570   0.920   2.610   0.116  0.4524 -0.4272  0.0209
   91DMF     N1 1571   0.874   2.746   0.086 -0.4767  0.2241  0.3815
   91DMF     C2 1572   0.791   2.762  -0.037  0.0017 -0.7964 -0.5407
   91DMF     C3 1573   0.908   2.854   0.161 -0.1893 -0.3749  0.0745
   91DMF     O1 1574   0.973   2.861   0.262 -0.4845  0.1654 -0.4289
   91DMF     H1 1575   0.932   2.596   0.224 -2.0323 -2.5890  0.0514
   91DMF     H2 1576   1.020   2.587   0.078  0.8834 -1.4910  1.7065
   91DMF     H3 1577   0.853   2.526   0.094  0.6710 -0.4657 -0.5048
   91DMF     H4 1578   0.719   2.844  -0.024 -0.6513 -1.3544 -0.5848
   91DMF     H5 1579   0.736   2.667  -0.048  1.5853 -1.8772  0.6761
   91DMF     H6 1580   0.847   2.776  -0.130  2.6649 -2.3494  0.7570
   91DMF     H7 1581   0.876   2.948   0.112  1.8560  0.4088  0.2131
   92DMF     C1 1582   1.878   0.057   3.662 -0.3995  0.3270  0.7963
   92DMF     N1 1583   2.017   0.094   3.700  0.5720  0.1239 -0.0787
   92DMF     C2 1584   2.088   0.201   3.641 -0.0532  0.7217  0.1360
   92DMF     C3 1585   2.075   0.033   3.812 -0.1012 -0.7029  0.5290
   92DMF     O1 1586   2.019  -0.056   3.872  0.0617 -0.6085  0.3617
   92DMF     H1 1587   1.872  -0.049   3.691  0.9663  0.7395  2.6881
   92DMF     H2 1588   1.859   0.071   3.555  1.4766 -1.2794  0.2330
   92DMF     H3 1589   1.810   0.107   3.732 -0.3208 -1.3006  2.0856
   92DMF     H4 1590   2.189   0.167   3.615  1.1476  2.3134  2.6019
   92DMF     H5 1591   2.089   0.282   3.714  0.0562 -0.0845  1.0420
   92DMF     H6 1592   2.049   0.233   3.543  2.3670  2.1705 -0.3993
   92DMF     H7 1593   2.182   0.048   3.834 -0.4465  1.5159  0.7385
   93DMF     C1 1594   2.859   2.077   1.521  0.5277  0.7806 -0.3958
   93DMF     N1 1595   2.747   1.999   1.462 -0.0774 -0.8612 -0.7496
   93DMF     C2 1596   2.662   1.914   1.550  0.6389  0.0781 -0.5499
   93DMF     C3 1597   2.742   1.992   1.325 -0.3489 -0.4586 -0.3301
   93DMF     O1 1598   2.818   2.046   1.246 -0.5203 -0.0891 -0.0150
   93DMF     H1 1599   2.954   2.056   1.469  1.5180  1.7793  0.9820
   93DMF     H2 1600   2.876   2.048   1.625 -2.0195  1.0687  0.1299
   93DMF     H3 1601   2.839   2.184   1.515  1.3753  1.0241  0.8244
   93DMF     H4 1602   2.643   1.971   1.643 -1.0637 -1.5550  0.1455
   93DMF     H5 1603   2.714   1.826   1.589  0.3407  0.0778 -0.1431
   93DMF     H6 1604   2.572   1.874   1.503  0.9293 -1.5234  0.2363
   93DMF     H7 1605   2.653   1.937   1.288 -1.8591  2.1147 -0.7215
   94DMF     C1 1606   0.915   2.420   0.727  0.6814  0.1025 -0.3781
   94DMF     N1 1607   0.935   2.326   0.616 -0.0792 -0.1034 -0.4542
   94DMF     C2 1608   0.959   2.371   0.483 -0.2724 -0.2357 -0.4889
   94DMF     C3 1609   0.946   2.193   0.639  0.4263 -0.0038 -0.3275
   94DMF     O1 1610   0.919   2.151   0.745  0.6124  0.0740 -0.6875
   94DMF     H1 1611   0.842   2.494   0.692  1.8685  0.1604 -2.9175
   94DMF     H2 1612   1.006   2.478   0.747  2.2165 -2.0116 -1.0163
   94DMF     H3 1613   0.886   2.370   0.820 -0.4337  1.4338 -0.0023
   94DMF     H4 1614   0.870   2.353   0.421  0.7202 -1.1033 -1.7040
   94DMF     H5 1615   1.048   2.326   0.438  0.2258 -2.6790  2.7509
   94DMF     H6 1616   0.990   2.476   0.492  0.9252 -0.4395 -1.9805
   94DMF     H7 1617   0.958   2.132   0.548  2.9713  0.7522 -0.5418
   95DMF     C1 1618   2.233   2.046   1.533 -0.8472  0.5693 -0.4424
   95DMF     N1 1619   2.276   1.916   1.473 -0.3390 -0.1035  0.5231
   95DMF     C2 1620   2.251   1.782   1.542 -0.3706 -0.5851  0.1995
   95DMF     C3 1621   2.347   1.915   1.348 -0.7196  0.1581  0.3685
   95DMF     O1 1622   2.373   2.017   1.292  0.5232  0.1217  0.1627
   95DMF     H1 1623   2.322   2.107   1.550 -0.9887  1.0337 -1.3672
   95DMF     H2 1624   2.181   2.028   1.628 -0.9232  0.5860 -0.4806
   95DMF     H3 1625   2.166   2.099   1.464 -4.3073 -1.6572  1.0568
   95DMF     H4 1626   2.347   1.757   1.589  1.1177 -0.1686 -2.4891
   95DMF     H5 1627   2.206   1.710   1.473 -0.2670  0.1319 -0.6405
   95DMF     H6 1628   2.174   1.798   1.618 -1.5607  0.9679 -1.3028
   95DMF     H7 1629   2.358   1.809   1.319  2.7895  0.3118  0.9478
   96DMF     C1 1630   0.525   0.178   0.612  0.1174 -0.4372  0.4936
   96DMF     N1 1631   0.577   0.312   0.644 -1.1613 -0.1020 -0.6481
   96DMF     C2 1632   0.666   0.382   0.547 -0.4912 -0.3236  0.4430
   96DMF     C3 1633   0.557   0.358   0.775  0.2558 -0.7906 -0.1331
   96DMF     O1 1634   0.506   0.295   0.866  0.0199 -0.6836 -0.0323
   96DMF     H1 1635   0.503   0.170   0.504  1.8987  2.7470 -0.1583
   96DMF     H2 1636   0.427   0.161   0.659 -0.1623  0.9623  0.4210
   96DMF     H3 1637   0.589   0.100   0.654  0.2181 -1.0594 -0.7911
   96DMF     H4 1638   0.605   0.397   0.457  0.7891 -0.9297 -0.5473
   96DMF     H5 1639   0.750   0.315   0.525 -0.0672  0.8921 -1.7498
   96DMF     H6 1640   0.696   0.483   0.577  0.8072 -0.7311  0.5525
   96DMF     H7 1641   0.617   0.450   0.787  0.1150 -0.9510  1.8392
   97DMF     C1 1642   1.337   1.400   1.502 -0.9161  0.4519 -0.1779
   97DMF     N1 1643   1.454   1.371   1.420  0.7447  0.5274  0.1735
   97DMF     C2 1644   1.438   1.391   1.275  0.6044 -0.3777 -0.3163
   97DMF     C3 1645   1.583   1.378   1.476 -0.0353 -0.0593 -0.5887
   97DMF     O1 1646   1.598   1.387   1.596 -0.0140  0.0027  0.0142
   97DMF     H1 1647   1.333   1.508   1.514 -1.4613  0.6002 -1.6134
   97DMF     H2 1648   1.349   1.348   1.598  1.2815  2.9680  0.9676
   97DMF     H3 1649   1.253   1.361   1.443  1.9422 -2.4965 -2.5151
   97DMF     H4 1650   1.332   1.374   1.250 -0.3544  1.9082  1.9906
   97DMF     H5 1651   1.496   1.308   1.232  0.2800  0.3946 -2.2729
   97DMF     H6 1652   1.489   1.482   1.242  2.6658 -1.9763 -1.6717
   97DMF     H7 1653   1.664   1.380   1.400  0.7574 -0.9866  0.2208
   98DMF     C1 1654   2.459   0.211   1.277 -0.2293 -0.4146  0.7643
   98DMF     N1 1655   2.406   0.154   1.396 -0.7664 -0.4933 -0.3653
   98DMF     C2 1656   2.504   0.122   1.509 -0.4988 -0.2427  0.0244
   98DMF     C3 1657   2.290   0.080   1.390 -0.1505  0.7813  0.2498
   98DMF     O1 1658   2.212   0.082   1.296  0.4187 -0.2843  0.0098
   98DMF     H1 1659   2.381   0.245   1.208  0.5470 -0.0666  0.0558
   98DMF     H2 1660   2.521   0.137   1.225 -1.1174  0.1080 -1.0819
   98DMF     H3 1661   2.523   0.296   1.301 -2.7234  1.0691  2.4378
   98DMF     H4 1662   2.464   0.044   1.575 -0.4005 -0.8981 -0.6817
   98DMF     H5 1663   2.528   0.211   1.569 -1.9008  1.0768 -1.3313
   98DMF     H6 1664   2.595   0.084   1.461  0.5284  0.0763  1.6811
   98DMF     H7 1665   2.268   0.019   1.479  1.5352  0.1126  0.2274
   99DMF     C1 1666   1.123   1.549   1.290 -0.2351  0.4759  0.4826
   99DMF     N1 1667   1.060   1.646   1.201  0.3156 -0.2086 -0.3212
   99DMF     C2 1668   1.130   1.674   1.073  0.5515 -0.4318 -0.4119
   99DMF     C3 1669   0.936   1.712   1.237  0.4530  0.6101  0.2750
   99DMF     O1 1670   0.866   1.692   1.335 -0.3619  0.0143  0.2172
   99DMF     H1 1671   1.120   1.592   1.391  3.8749 -1.2810  1.4643
   99DMF     H2 1672   1.228   1.542   1.258 -1.4186 -1.6105 -3.1386
   99DMF     H3 1673   1.061   1.459   1.290 -0.9641  0.9512 -1.9039
   99DMF     H4 1674   1.208   1.751   1.086 -1.8309  2.1900 -1.1160
   99DMF     H5 1675   1.070   1.709   0.988 -0.7437 -1.6701 -0.0078
   99DMF     H6 1676   1.179   1.584   1.034 -0.4928 -1.4190  0.5391
   99DMF     H7 1677   0.902   1.780   1.157 -1.4244  2.0115  2.2229
  100DMF     C1 1678   1.560   0.642   0.653 -0.1275  0.5282 -0.0642
  100DMF     N1 1679   1.486   0.761   0.669  0.2647 -0.3591  0.4281
  100DMF     C2 1680   1.346   0.751   0.641 -0.0821  0.7210 -0.1255
  100DMF     C3 1681   1.544   0.883   0.723 -0.1484  0.0748 -0.1307
  100DMF     O1 1682   1.666   0.886   0.736 -0.1830  0.2918  0.3955
  100DMF     H1 1683   1.498   0.551   0.646 -0.1006  0.5650 -0.9403
  100DMF     H2 1684   1.636   0.633   0.732  0.3099  1.8575 -0.3203
  100DMF     H3 1685   1.620   0.654   0.561  0.0601  1.4796  0.1783
  100DMF     H4 1686   1.316   0.647   0.622 -1.9191  1.5694 -2.1669
  100DMF     H5 1687   1.314   0.813   0.556  2.6459 -0.3233 -1.9559
  100DMF     H6 1688   1.278   0.789   0.719 -3.5993 -1.5731 -1.9045
  100DMF     H7 1689   1.477   0.969   0.740  0.1549  0.3907 -0.5257
  101DMF     C1 1690   1.982   1.700   0.517  0.2209  0.3641 -0.5359
  101DMF     N1 1691   2.062   1.740   0.633 -0.2718 -0.6958  0.9743
  101DMF     C2 1692   2.205   1.708   0.625 -0.6565  0.2412  0.2215
  101DMF     C3 1693   2.012   1.827   0.730  0.2095  0.5309 -0.4575
  101DMF     O1 1694   1.895   1.848   0.739 -0.0198 -0.4608 -0.6995
  101DMF     H1 1695   2.030   1.721   0.420  0.2705 -0.6275 -0.7371
  101DMF     H2 1696   1.894   1.763   0.528  0.5787  0.9002 -0.7293
  101DMF     H3 1697   1.944   1.597   0.525  1.3277  0.1706  2.7467
  101DMF     H4 1698   2.211   1.600   0.609 -0.4997  0.1935  0.6070
  101DMF     H5 1699   2.258   1.723   0.720  2.3408  0.4728 -1.4042
  101DMF     H6 1700   2.263   1.767   0.552  2.1056 -1.3168  1.0704
  101DMF     H7 1701   2.092   1.850   0.803 -2.5928 -1.1118  3.2987
  102DMF     C1 1702   2.526   1.821   0.768  0.0387 -0.1951 -0.3149
  102DMF     N1 1703   2.531   1.923   0.871  0.4688 -0.1773  0.1069
  102DMF     C2 1704   2.660   1.992   0.885  0.5554  0.7179 -0.5654
  102DMF     C3 1705   2.426   1.944   0.961  0.3042  0.6041 -0.1410
  102DMF     O1 1706   2.331   1.867   0.970 -0.0293  0.0238 -0.3257
  102DMF     H1 1707   2.486   1.723   0.798  3.3792 -1.0937  1.5528
  102DMF     H2 1708   2.624   1.787   0.730 -1.2236 -2.3375 -1.7761
  102DMF     H3 1709   2.470   1.860   0.683  0.6106  0.2734 -0.4844
  102DMF     H4 1710   2.668   2.051   0.978 -0.7816 -0.8348  0.5691
  102DMF     H5 1711   2.670   2.056   0.796 -1.6016  0.4713 -1.0172
  102DMF     H6 1712   2.739   1.916   0.888  1.0137  1.2150  0.0567
  102DMF     H7 1713   2.432   2.038   1.018 -1.5781  0.0377  1.0313
  103DMF     C1 1714   0.197   0.617   1.083  0.1779  0.1343 -0.3130
  103DMF     N1 1715   0.235   0.476   1.075 -0.5040  0.9293 -0.4244
  103DMF     C2 1716   0.305   0.422   1.194  0.0099 -0.5524  0.4241
  103DMF     C3 1717   0.226   0.396   0.959 -0.3434  0.2956  0.2282
  103DMF     O1 1718   0.194   0.448   0.853  0.1622  0.2639 -0.3794
  103DMF     H1 1719   0.116   0.648   1.015 -0.0995  0.3099  0.0897
  103DMF     H2 1720   0.289   0.677   1.078 -0.5981  1.8028  3.2041
  103DMF     H3 1721   0.164   0.639   1.186  0.4719  1.8714 -0.5694
  103DMF     H4 1722   0.357   0.331   1.161  0.9515 -0.4345  1.5620
  103DMF     H5 1723   0.228   0.388   1.266  0.9730 -1.9851  0.8031
  103DMF     H6 1724   0.367   0.509   1.216  0.0580 -0.8052  1.3233
  103DMF     H7 1725   0.257   0.291   0.971 -0.1832  0.3406  0.2146
  104DMF     C1 1726   0.047   3.150   3.240 -0.6015  0.4604 -0.1029
  104DMF     N1 1727   0.116   3.022   3.215 -0.6623 -0.4248  0.0186
  104DMF     C2 1728   0.054   2.928   3.121 -0.1604  0.0557  0.1521
  104DMF     C3 1729   0.239   2.991   3.286 -0.5960 -0.5997  0.0456
  104DMF     O1 1730   0.290   3.076   3.358  0.0434 -0.6361 -0.1680
  104DMF     H1 1731   0.070   3.230   3.169  0.6868  2.0660  2.0434
  104DMF     H2 1732   0.059   3.191   3.341 -0.1313  0.4342 -0.1455
  104DMF     H3 1733  -0.059   3.123   3.234 -0.8022  0.3050  3.0048
  104DMF     H4 1734   0.124   2.868   3.062  0.8958 -0.7943  2.2075
  104DMF     H5 1735   0.001   2.988   3.046  0.3776  2.0216  1.3005
  104DMF     H6 1736  -0.018   2.867   3.177 -1.5546 -0.8224 -2.4980
  104DMF     H7 1737   0.285   2.892   3.268 -0.5633 -0.4534 -0.7103
  105DMF     C1 1738   3.082   1.795   1.238 -0.5383  0.0388 -0.4501
  105DMF     N1 1739   2.967   1.721   1.295  0.0296 -0.2962 -1.0053
  105DMF     C2 1740   2.874   1.665   1.194 -0.4373 -0.4423 -0.4030
  105DMF     C3 1741   2.939   1.718   1.439 -0.1981  0.2937 -0.2021
  105DMF     O1 1742   3.023   1.748   1.520 -0.2389 -0.5280  0.1102
  105DMF     H1 1743   3.044   1.887   1.193 -0.6173  0.4345  0.4313
  105DMF     H2 1744   3.126   1.734   1.157 -0.5976 -2.1073  1.0857
  105DMF     H3 1745   3.167   1.804   1.306  0.9661 -0.0628 -2.2669
  105DMF     H4 1746   2.891   1.557   1.185 -2.7063 -0.7363 -1.3233
  105DMF     H5 1747   2.885   1.712   1.096  0.9879 -1.4872 -0.7739
  105DMF     H6 1748   2.775   1.695   1.230  0.1881 -0.0303  1.0525
  105DMF     H7 1749   2.844   1.665   1.463  0.5930 -0.9682  0.1646
  106DMF     C1 1750   2.069   2.233   3.188 -0.0682  0.9353 -0.8144
  106DMF     N1 1751   2.037   2.108   3.118  0.6060 -0.2640  0.7413
  106DMF     C2 1752   2.141   2.012   3.091 -0.0966  0.0710 -0.5158
  106DMF     C3 1753   1.918   2.108   3.034  0.2721 -0.0665 -0.2202
  106DMF     O1 1754   1.829   2.187   3.044  0.5056  0.7667 -0.1277
  106DMF     H1 1755   2.144   2.218   3.266  0.6875  0.1847 -1.6678
  106DMF     H2 1756   1.977   2.280   3.225 -0.4558 -0.4525  0.0067
  106DMF     H3 1757   2.105   2.308   3.116  1.4307  1.5727  0.5863
  106DMF     H4 1758   2.188   1.985   3.186  0.8012  2.5768 -0.2142
  106DMF     H5 1759   2.214   2.049   3.018 -1.4897  2.1006 -0.9311
  106DMF     H6 1760   2.094   1.927   3.041 -0.6034  1.0199 -1.6727
  106DMF     H7 1761   1.928   2.033   2.954 -0.5753 -0.0107 -0.3893
  107DMF     C1 1762   0.598   0.960   1.453  0.1132 -0.1041 -0.4035
  107DMF     N1 1763   0.458   0.918   1.499  0.1491  0.3511 -0.0501
  107DMF     C2 1764   0.356   1.030   1.502 -0.0552 -0.4836  0.4603
  107DMF     C3 1765   0.428   0.781   1.501 -0.8142  0.2504 -0.8400
  107DMF     O1 1766   0.513   0.692   1.497 -0.3208  0.6886 -0.2574
  107DMF     H1 1767   0.590   1.050   1.391  0.5203  0.0899 -0.1838
  107DMF     H2 1768   0.643   0.889   1.383 -0.6086 -0.4868 -0.4847
  107DMF     H3 1769   0.658   0.979   1.543  0.5017 -4.0612  0.2839
  107DMF     H4 1770   0.405   1.123   1.533 -2.7330  1.0955  0.0635
  107DMF     H5 1771   0.275   0.996   1.568  0.7217 -1.7169  0.8017
  107DMF     H6 1772   0.314   1.028   1.401  0.3890  0.5287  0.2524
  107DMF     H7 1773   0.321   0.755   1.514 -0.2090 -1.0441  1.8859
  108DMF     C1 1774   1.720   3.074   1.020  0.2403 -0.0303 -0.3477
  108DMF     N1 1775   1.700   3.128   1.160  0.0361  0.0631 -0.0016
  108DMF     C2 1776   1.587   3.211   1.194  0.8774  0.3261  0.2754
  108DMF     C3 1777   1.805   3.112   1.258 -0.1139  0.2274 -0.0283
  108DMF     O1 1778   1.913   3.062   1.233  0.6662 -0.6425 -0.4612
  108DMF     H1 1779   1.622   3.050   0.975  0.3133 -1.4449  0.2285
  108DMF     H2 1780   1.791   2.992   1.035 -0.2321 -0.4185 -0.2199
  108DMF     H3 1781   1.777   3.145   0.960  0.7710  0.3162  0.5643
  108DMF     H4 1782   1.633   3.295   1.247 -0.9568  0.9109  0.9567
  108DMF     H5 1783   1.513   3.159   1.255  0.8186 -0.8077 -0.7407
  108DMF     H6 1784   1.529   3.245   1.107  0.4066 -0.1131  0.4115
  108DMF     H7 1785   1.778   3.149   1.358  1.5461  2.0256 -0.2199
  109DMF     C1 1786   3.058   2.455   1.215  0.0260 -0.4835  0.6837
  109DMF     N1 1787   3.010   2.325   1.158  0.2221 -0.2533  0.4985
  109DMF     C2 1788   3.086   2.203   1.187 -0.0622 -0.0754 -0.3098
  109DMF     C3 1789   2.887   2.316   1.089 -0.5135  0.1230  0.2274
  109DMF     O1 1790   2.813   2.410   1.080  0.4061 -0.2065  0.5612
  109DMF     H1 1791   3.142   2.432   1.283  1.0912  3.3146  0.7782
  109DMF     H2 1792   2.969   2.497   1.264  0.9318  1.4036  0.7650
  109DMF     H3 1793   3.102   2.514   1.134  1.2571 -2.1841  0.0861
  109DMF     H4 1794   3.036   2.162   1.275  1.0199  2.1370  1.3976
  109DMF     H5 1795   3.187   2.235   1.214 -0.1543  0.9463 -1.1090
  109DMF     H6 1796   3.092   2.130   1.106  2.1807 -1.4644  1.0809
  109DMF     H7 1797   2.869   2.217   1.043 -2.3156  1.1544 -1.3751
  110DMF     C1 1798   2.894   0.283   1.258 -0.1530 -0.5494  0.0452
  110DMF     N1 1799   2.920   0.148   1.206 -0.3641 -0.5990 -0.1161
  110DMF     C2 1800   2.811   0.061   1.173 -0.8451 -0.3192 -0.2565
  110DMF     C3 1801   3.053   0.101   1.184 -0.4375 -0.0888  0.4032
  110DMF     O1 1802   3.161   0.163   1.202  0.1098  0.0693  0.9311
  110DMF     H1 1803   2.789   0.309   1.237 -0.0566 -1.8555 -2.1850
  110DMF     H2 1804   2.970   0.351   1.219  1.1325 -2.1034 -0.2130
  110DMF     H3 1805   2.915   0.282   1.365  0.6424 -1.5397 -0.1138
  110DMF     H4 1806   2.742   0.045   1.257 -1.1046 -0.3312 -0.4718
  110DMF     H5 1807   2.836  -0.042   1.144  1.7607 -0.4278  2.1824
  110DMF     H6 1808   2.752   0.096   1.088  0.6782  2.1778 -0.3054
  110DMF     H7 1809   3.059  -0.005   1.153  1.8726  0.6880 -2.0240
  111DMF     C1 1810   0.136   2.860   0.232 -0.8246  0.5842  0.1604
  111DMF     N1 1811   0.274   2.842   0.273  0.2781  0.1330  0.0227
  111DMF     C2 1812   0.372   2.839   0.170  0.2741  0.4089  0.6356
  111DMF     C3 1813   0.306   2.814   0.408  0.2701  0.4420 -0.4733
  111DMF     O1 1814   0.219   2.792   0.492 -0.1284 -0.0584 -0.2876
  111DMF     H1 1815   0.081   2.921   0.304  0.4213  1.0145  0.7458
  111DMF     H2 1816   0.083   2.764   0.234 -1.5009  0.9895  1.6790
  111DMF     H3 1817   0.134   2.896   0.128  0.4825 -0.5103 -0.2531
  111DMF     H4 1818   0.362   2.929   0.109  1.2966  1.2239  1.6417
  111DMF     H5 1819   0.375   2.749   0.107  0.0858  0.8810 -0.0470
  111DMF     H6 1820   0.473   2.839   0.212 -0.5720  0.3852  2.7350
  111DMF     H7 1821   0.413   2.823   0.435 -0.1120  1.4140  0.7501
  112DMF     C1 1822   1.202   3.118   3.742  0.2454  0.9292 -0.4010
  112DMF     N1 1823   1.168   3.254   3.705 -0.5413 -0.1683  0.2243
  112DMF     C2 1824   1.247   3.329   3.609 -0.5106 -0.1407  0.0250
  112DMF     C3 1825   1.076   3.334   3.781 -0.0871 -0.0660 -0.0701
  112DMF     O1 1826   1.002   3.277   3.861 -0.1645 -0.9924 -0.1219
  112DMF     H1 1827   1.124   3.051   3.703  0.2831  1.0048 -0.6069
  112DMF     H2 1828   1.215   3.091   3.848 -1.7067  0.6312 -0.2103
  112DMF     H3 1829   1.297   3.089   3.696  0.8852  0.7068  1.0309
  112DMF     H4 1830   1.212   3.433   3.601  0.0862 -0.0914 -2.3583
  112DMF     H5 1831   1.225   3.282   3.512  1.8535  0.9071 -1.0723
  112DMF     H6 1832   1.350   3.322   3.644  0.4683 -0.9374 -2.8328
  112DMF     H7 1833   1.082   3.442   3.759 -2.1937  0.3667  1.3730
  113DMF     C1 1834   2.638   1.414   1.564 -0.2794 -0.4172  0.3403
  113DMF     N1 1835   2.632   1.435   1.418 -0.3554  0.2177  0.3651
  113DMF     C2 1836   2.697   1.339   1.330 -0.8287 -1.2115 -0.3048
  113DMF     C3 1837   2.564   1.549   1.370  0.0201 -0.1669  0.3863
  113DMF     O1 1838   2.515   1.633   1.438 -0.0727 -0.6977  0.5405
  113DMF     H1 1839   2.746   1.426   1.580 -0.1416 -0.8318 -0.2268
  113DMF     H2 1840   2.600   1.314   1.588  0.0768 -1.0829 -1.6987
  113DMF     H3 1841   2.594   1.496   1.622 -1.2899 -0.2019 -0.7111
  113DMF     H4 1842   2.786   1.380   1.282 -1.2872 -0.6835 -0.7200
  113DMF     H5 1843   2.625   1.319   1.249  0.4841 -0.3618 -1.7085
  113DMF     H6 1844   2.709   1.242   1.379  1.0982 -0.2713  1.1253
  113DMF     H7 1845   2.579   1.571   1.263 -1.5316 -0.4379  0.1063
  114DMF     C1 1846   1.055   1.903   1.535  0.5749 -0.0994  0.4667
  114DMF     N1 1847   1.195   1.969   1.528  0.0545  0.7464 -0.0245
  114DMF     C2 1848   1.313   1.881   1.496  0.3496 -0.4795  0.3164
  114DMF     C3 1849   1.217   2.101   1.555 -0.4474 -0.4544  0.3676
  114DMF     O1 1850   1.123   2.167   1.602  0.2814  0.2434  0.3898
  114DMF     H1 1851   1.075   1.795   1.532 -1.5302 -0.5032  0.8260
  114DMF     H2 1852   0.982   1.947   1.466  1.0426 -0.2335 -0.1258
  114DMF     H3 1853   1.010   1.911   1.634 -1.9049 -0.6475 -0.5739
  114DMF     H4 1854   1.283   1.778   1.474 -0.4126  0.1241 -1.5645
  114DMF     H5 1855   1.375   1.871   1.586 -0.3811  1.3735  1.0411
  114DMF     H6 1856   1.362   1.924   1.407  0.7052 -0.8384  0.3390
  114DMF     H7 1857   1.324   2.129   1.541 -0.6966  0.1848 -0.3475
  115DMF     C1 1858   2.895   2.701   1.553 -0.7594  0.7560  0.0025
  115DMF     N1 1859   2.985   2.587   1.545  0.6259 -0.3883 -0.2882
  115DMF     C2 1860   2.920   2.447   1.548  0.1591  0.0575 -0.3667
  115DMF     C3 1861   3.129   2.596   1.540  0.3661 -0.0945 -0.0235
  115DMF     O1 1862   3.193   2.696   1.512  0.2028 -0.1081 -0.6382
  115DMF     H1 1863   2.814   2.697   1.479 -1.3646  0.0614  0.6993
  115DMF     H2 1864   2.952   2.790   1.524 -0.2288 -0.0213 -1.3771
  115DMF     H3 1865   2.860   2.717   1.655  0.1136  0.8072  0.3004
  115DMF     H4 1866   2.873   2.415   1.454 -1.1269 -0.4687  0.4469
  115DMF     H5 1867   2.854   2.437   1.635 -1.3450 -1.4747 -1.6435
  115DMF     H6 1868   2.999   2.376   1.575  0.0270 -0.0825 -0.3460
  115DMF     H7 1869   3.170   2.494   1.550 -1.2112 -0.7989 -0.5208
  116DMF     C1 1870   0.603   2.827   0.704  0.0223 -0.3120 -0.5405
  116DMF     N1 1871   0.721   2.825   0.616  0.2487  0.2589  0.2483
  116DMF     C2 1872   0.701   2.875   0.478 -0.0127  0.1206 -0.2080
  116DMF     C3 1873   0.850   2.812   0.675 -0.4092  0.1473  0.2145
  116DMF     O1 1874   0.861   2.810   0.795 -0.2132  0.1337 -0.2616
  116DMF     H1 1875   0.614   2.749   0.780  1.1369  0.9260  0.5951
  116DMF     H2 1876   0.512   2.811   0.644  0.2889 -1.1811 -0.7306
  116DMF     H3 1877   0.597   2.924   0.755 -0.8663 -0.4881 -0.3104
  116DMF     H4 1878   0.614   2.828   0.429 -0.5778  3.7819 -2.8862
  116DMF     H5 1879   0.792   2.863   0.418 -1.3387 -3.2776 -1.6550
  116DMF     H6 1880   0.674   2.980   0.493 -1.6494 -0.5673  2.0275
  116DMF     H7 1881   0.931   2.815   0.599 -1.1782  1.2884 -0.5862
  117DMF     C1 1882   1.871   1.903   1.524  0.3010  0.6375 -0.2949
  117DMF     N1 1883   1.782   1.793   1.559  0.4466 -0.3495 -0.1934
  117DMF     C2 1884   1.635   1.825   1.563  0.1242  0.0811  0.3050
  117DMF     C3 1885   1.829   1.663   1.569  0.0683 -0.2135  0.0166
  117DMF     O1 1886   1.944   1.637   1.545  0.6472 -0.7021 -0.0679
  117DMF     H1 1887   1.884   1.953   1.620 -3.4916 -0.4910  0.9084
  117DMF     H2 1888   1.833   1.959   1.437 -1.0053 -1.8447 -1.3837
  117DMF     H3 1889   1.970   1.866   1.495  0.9692  0.0036  2.6466
  117DMF     H4 1890   1.580   1.731   1.554  1.8899 -1.1331  1.5902
  117DMF     H5 1891   1.616   1.889   1.476  1.1668  0.1308  0.0992
  117DMF     H6 1892   1.605   1.874   1.657  0.8061  0.1439  0.4984
  117DMF     H7 1893   1.747   1.594   1.597 -0.4663  0.4616  0.1339
  118DMF     C1 1894   0.865   2.297   1.486 -0.1780 -0.1880  0.0151
  118DMF     N1 1895   0.740   2.351   1.435  0.2549 -0.1222 -0.3974
  118DMF     C2 1896   0.654   2.268   1.355 -0.4397 -0.4285 -0.2954
  118DMF     C3 1897   0.702   2.486   1.459 -0.4902 -1.2071  0.0094
  118DMF     O1 1898   0.775   2.561   1.530 -0.1188  0.1961  0.1613
  118DMF     H1 1899   0.936   2.317   1.406  0.9372 -1.6183  0.6264
  118DMF     H2 1900   0.854   2.190   1.507 -0.9191 -0.0582  0.3081
  118DMF     H3 1901   0.887   2.325   1.590  3.2511  0.5985 -0.8500
  118DMF     H4 1902   0.711   2.213   1.279  1.8685 -0.2525  1.2596
  118DMF     H5 1903   0.580   2.323   1.296  0.7485  0.7899 -0.6745
  118DMF     H6 1904   0.612   2.193   1.424 -2.4180  1.7041  0.8839
  118DMF     H7 1905   0.608   2.510   1.406  1.1452 -1.1005 -2.9704
  119DMF     C1 1906   2.932   0.335   0.874 -0.2691  0.4194  0.5721
  119DMF     N1 1907   2.807   0.254   0.859  0.9464 -0.6616  0.2548
  119DMF     C2 1908   2.817   0.116   0.823 -0.1058  0.7732 -0.4014
  119DMF     C3 1909   2.692   0.310   0.916  0.6635 -0.0519  0.2302
  119DMF     O1 1910   2.685   0.426   0.953  0.7308  0.2492 -0.0258
  119DMF     H1 1911   2.949   0.367   0.978  3.2142  1.8269 -0.3660
  119DMF     H2 1912   2.928   0.420   0.804 -1.7331 -0.3540 -0.3068
  119DMF     H3 1913   3.012   0.264   0.852 -0.6060  0.7130 -1.7585
  119DMF     H4 1914   2.885   0.061   0.891  0.5313  0.0421 -1.6068
  119DMF     H5 1915   2.862   0.123   0.723  3.5572  1.6071  1.2011
  119DMF     H6 1916   2.722   0.062   0.827 -1.0533  2.4402 -0.2812
  119DMF     H7 1917   2.611   0.236   0.924  0.5678 -0.0635 -0.7707
  120DMF     C1 1918   2.102   2.108   1.066 -0.6011  0.3196  0.3126
  120DMF     N1 1919   2.005   2.191   0.986 -0.1593  0.0409 -0.1745
  120DMF     C2 1920   1.915   2.120   0.896 -0.4444  0.1320  0.3968
  120DMF     C3 1921   1.990   2.322   1.022  0.0549  0.4390 -0.5794
  120DMF     O1 1922   2.044   2.376   1.117  0.0913 -0.4357  0.0258
  120DMF     H1 1923   2.204   2.131   1.034 -0.7325  1.6117  0.8173
  120DMF     H2 1924   2.071   2.005   1.042  0.0366  0.4478 -1.1310
  120DMF     H3 1925   2.093   2.121   1.174  3.2205  1.0362  0.5841
  120DMF     H4 1926   1.974   2.061   0.824 -0.5446 -0.1827  0.5745
  120DMF     H5 1927   1.865   2.199   0.838 -2.3747 -0.0332  1.8083
  120DMF     H6 1928   1.848   2.055   0.953  1.1565 -0.9417  1.0603
  120DMF     H7 1929   1.920   2.376   0.955  1.5165  3.4688  0.2731
  121DMF     C1 1930   0.701   3.227   0.900 -0.0715  0.0450  0.2541
  121DMF     N1 1931   0.599   3.309   0.845  0.0217 -0.1380  0.2823
  121DMF     C2 1932   0.536   3.403   0.936 -0.1239 -0.3821 -0.1220
  121DMF     C3 1933   0.530   3.276   0.722 -0.1793 -0.0827 -0.1554
  121DMF     O1 1934   0.576   3.203   0.638  0.0191  0.2753  0.6765
  121DMF     H1 1935   0.752   3.285   0.977  2.6806 -1.5664 -0.2588
  121DMF     H2 1936   0.777   3.197   0.826 -0.4437 -0.6680  0.1557
  121DMF     H3 1937   0.655   3.136   0.941  1.7950 -1.0426  0.0255
  121DMF     H4 1938   0.490   3.482   0.875 -0.1368  1.1791  1.8497
  121DMF     H5 1939   0.612   3.463   0.989 -1.2602  1.4019 -0.4979
  121DMF     H6 1940   0.453   3.365   0.997  0.4904 -0.1834  0.8565
  121DMF     H7 1941   0.438   3.336   0.709 -1.1486 -1.3458  0.7946
  122DMF     C1 1942   2.338   2.927   1.551 -0.1558  0.3328  0.2350
  122DMF     N1 1943   2.460   3.003   1.547 -0.2604 -0.0063 -0.3127
  122DMF     C2 1944   2.584   2.929   1.537 -0.0089 -0.3741  0.0422
  122DMF     C3 1945   2.462   3.143   1.560 -0.2024  0.0526 -0.4552
  122DMF     O1 1946   2.362   3.211   1.573 -0.3400 -0.4000 -0.2433
  122DMF     H1 1947   2.293   2.923   1.450 -2.0651  0.0615  1.0641
  122DMF     H2 1948   2.264   2.980   1.612 -2.4153 -2.4080 -0.0404
  122DMF     H3 1949   2.355   2.826   1.588 -0.2757 -0.1190 -0.9252
  122DMF     H4 1950   2.671   2.992   1.517  0.9347 -1.3376  1.0219
  122DMF     H5 1951   2.581   2.872   1.444 -0.2237 -1.4992  0.7240
  122DMF     H6 1952   2.604   2.874   1.630  0.5423  2.0519  1.3843
  122DMF     H7 1953   2.558   3.197   1.556  0.0929 -0.5465 -1.5612
  123DMF     C1 1954   1.144   1.897   0.379  0.6172 -0.7378 -0.5365
  123DMF     N1 1955   1.174   2.039   0.348  0.1232  1.2425  0.5161
  123DMF     C2 1956   1.108   2.085   0.225 -0.3560  0.0980  0.6673
  123DMF     C3 1957   1.249   2.115   0.437 -0.4098 -0.4445  0.1159
  123DMF     O1 1958   1.287   2.070   0.543 -0.4222  0.2579  0.3090
  123DMF     H1 1959   1.042   1.868   0.353  2.1113 -4.3492 -2.7632
  123DMF     H2 1960   1.161   1.868   0.483  0.5630  0.6261 -0.1335
  123DMF     H3 1961   1.211   1.838   0.315  0.6738 -1.9644  0.6371
  123DMF     H4 1962   1.056   1.996   0.189  0.6598 -0.9012  1.6318
  123DMF     H5 1963   1.178   2.104   0.142 -0.9364 -1.0261 -0.0927
  123DMF     H6 1964   1.040   2.169   0.244 -1.8896 -1.3187  1.5283
  123DMF     H7 1965   1.268   2.215   0.393 -0.0154 -0.2195  0.7714
  124DMF     C1 1966   1.019   0.093   1.327  0.5215 -0.6398 -0.2180
  124DMF     N1 1967   0.900   0.093   1.415  0.0410 -0.1581  0.4535
  124DMF     C2 1968   0.923   0.086   1.561 -0.3478 -0.1377  0.3664
  124DMF     C3 1969   0.769   0.111   1.362  0.0858 -0.0608 -0.4014
  124DMF     O1 1970   0.754   0.126   1.241 -0.4031 -1.2125  0.3003
  124DMF     H1 1971   1.100   0.037   1.373 -0.7151 -1.9725  0.3712
  124DMF     H2 1972   1.053   0.195   1.306 -0.2960 -0.3382 -0.1164
  124DMF     H3 1973   0.992   0.040   1.234  0.8908  0.2625 -0.8409
  124DMF     H4 1974   0.985  -0.003   1.576 -0.1810 -0.1158 -0.1982
  124DMF     H5 1975   0.832   0.069   1.620  0.5697 -1.2218  1.5048
  124DMF     H6 1976   0.960   0.185   1.588 -0.5825  0.3772 -1.1670
  124DMF     H7 1977   0.683   0.115   1.431 -0.8660  0.1325 -1.5928
  125DMF     C1 1978   1.629   1.521   3.519  0.6044 -0.6539 -0.3698
  125DMF     N1 1979   1.632   1.403   3.615  0.1533  0.1908 -0.8576
  125DMF     C2 1980   1.647   1.422   3.755 -0.0763  0.8640 -0.1803
  125DMF     C3 1981   1.626   1.269   3.567 -1.4195  0.8212 -0.7084
  125DMF     O1 1982   1.626   1.242   3.450 -0.7966  0.4296  0.4143
  125DMF     H1 1983   1.631   1.489   3.414  0.6386 -0.5394 -0.4044
  125DMF     H2 1984   1.703   1.598   3.544 -0.2055  0.5387 -1.6117
  125DMF     H3 1985   1.533   1.570   3.539  0.4143  0.6965 -4.1962
  125DMF     H4 1986   1.586   1.356   3.818  0.3901  1.4268  0.8602
  125DMF     H5 1987   1.620   1.523   3.788 -1.1615  0.0409  1.5130
  125DMF     H6 1988   1.749   1.408   3.791  0.2196  0.5643 -1.1075
  125DMF     H7 1989   1.627   1.195   3.649  0.1805  1.2474 -0.3163
  126DMF     C1 1990   2.572   3.083   0.747 -0.2034 -0.2710 -0.1878
  126DMF     N1 1991   2.589   3.177   0.629 -0.0686  0.4534  0.1463
  126DMF     C2 1992   2.537   3.316   0.651 -0.1043  0.6630  0.3898
  126DMF     C3 1993   2.626   3.131   0.502  0.2570  0.3951 -0.2195
  126DMF     O1 1994   2.665   3.018   0.474  0.0809  0.3608  0.5842
  126DMF     H1 1995   2.650   3.108   0.820 -0.0294 -2.3184  0.3517
  126DMF     H2 1996   2.585   2.982   0.706 -3.0857 -2.0009  2.9028
  126DMF     H3 1997   2.472   3.096   0.790 -0.0983  3.7461 -0.9120
  126DMF     H4 1998   2.540   3.341   0.758  0.2669 -1.3798  0.8844
  126DMF     H5 1999   2.436   3.325   0.609 -0.3363 -1.0248  0.5283
  126DMF     H6 2000   2.602   3.386   0.600 -0.3541  1.1336  0.7131
  126DMF     H7 2001   2.623   3.211   0.426 -2.5199  0.9395  0.4437
  127DMF     C1 2002   1.697   0.166   1.015  0.0486 -0.3385  0.8821
  127DMF     N1 2003   1.558   0.118   1.046  0.5957 -0.2069  0.2249
  127DMF     C2 2004   1.497   0.169   1.173 -0.0372 -0.4183 -0.0174
  127DMF     C3 2005   1.485   0.028   0.955 -0.3767 -0.1791 -0.0563
  127DMF     O1 2006   1.532  -0.029   0.859 -0.1114 -0.5344  0.0721
  127DMF     H1 2007   1.751   0.220   1.094  0.8065 -1.3313  1.0421
  127DMF     H2 2008   1.702   0.243   0.936  0.2443  0.2404  1.4480
  127DMF     H3 2009   1.766   0.087   0.984 -0.5263 -0.8453  0.8871
  127DMF     H4 2010   1.468   0.082   1.233  1.1364 -1.7518 -1.3605
  127DMF     H5 2011   1.400   0.218   1.154  0.0751  0.1338  0.7930
  127DMF     H6 2012   1.569   0.227   1.232 -1.4185  0.1808  1.1115
  127DMF     H7 2013   1.385  -0.000   0.992  0.0367 -1.3940  0.1743
  128DMF     C1 2014   0.382   0.421   1.526  0.0862 -0.0482  1.0381
  128DMF     N1 2015   0.295   0.295   1.528  0.0526  0.2779 -0.0977
  128DMF     C2 2016   0.356   0.164   1.512  0.6443 -0.1710  0.4074
  128DMF     C3 2017   0.156   0.302   1.561 -0.0851  0.2386 -0.1255
  128DMF     O1 2018   0.101   0.410   1.578  0.1295  0.2404 -0.3089
  128DMF     H1 2019   0.323   0.514   1.530 -0.3934 -0.3442  0.8138
  128DMF     H2 2020   0.441   0.422   1.434  1.0745 -0.3560  1.6596
  128DMF     H3 2021   0.453   0.420   1.610 -1.2003 -0.6847  2.1480
  128DMF     H4 2022   0.312   0.121   1.421  1.0311 -0.2430  0.2559
  128DMF     H5 2023   0.337   0.103   1.601 -3.0482 -0.3210 -0.3825
  128DMF     H6 2024   0.461   0.191   1.501  0.2742  0.5694 -1.6268
  128DMF     H7 2025   0.101   0.207   1.575  1.2264 -0.5247 -0.0897
  129DMF     C1 2026   2.267   2.489   0.589 -0.2552 -0.0834 -0.1675
  129DMF     N1 2027   2.235   2.399   0.693 -0.7327  0.3413  0.0513
  129DMF     C2 2028   2.269   2.438   0.838 -0.2161 -0.1299  0.5151
  129DMF     C3 2029   2.190   2.269   0.658  0.4425  0.5065  0.3809
  129DMF     O1 2030   2.181   2.227   0.544  0.4612 -0.2882  0.4109
  129DMF     H1 2031   2.360   2.453   0.543  0.3520  0.5559  0.5302
  129DMF     H2 2032   2.279   2.594   0.620  0.7537 -0.2356 -0.0356
  129DMF     H3 2033   2.192   2.485   0.509 -1.1375  0.9105  0.5971
  129DMF     H4 2034   2.246   2.541   0.867 -1.4494 -0.4276  0.6263
  129DMF     H5 2035   2.376   2.423   0.860 -0.6700 -1.1260  2.1440
  129DMF     H6 2036   2.216   2.372   0.909  0.2993  0.2116  1.2247
  129DMF     H7 2037   2.158   2.209   0.745 -0.1895 -2.0971 -1.5756
  130DMF     C1 2038   2.142   0.627   0.068  0.6936 -0.3036  0.1283
  130DMF     N1 2039   2.252   0.601   0.164 -0.2977  0.7636  0.0706
  130DMF     C2 2040   2.323   0.720   0.212  0.3433 -0.3885 -0.6126
  130DMF     C3 2041   2.285   0.472   0.212  0.0166  0.8358  0.3464
  130DMF     O1 2042   2.215   0.377   0.181  0.2747 -0.1014 -0.2191
  130DMF     H1 2043   2.067   0.548   0.078  2.3736 -1.7873  1.1555
  130DMF     H2 2044   2.179   0.634  -0.035 -1.1249 -1.5262 -0.6296
  130DMF     H3 2045   2.091   0.723   0.082 -0.8474 -1.1315  0.2830
  130DMF     H4 2046   2.424   0.701   0.250  0.1607 -2.5607 -1.2005
  130DMF     H5 2047   2.264   0.760   0.296 -0.0562 -1.2387 -0.4875
  130DMF     H6 2048   2.330   0.800   0.137  0.2133 -1.5374 -1.8513
  130DMF     H7 2049   2.352   0.474   0.299 -1.0137 -2.5893  1.3009
  131DMF     C1 2050   2.546   1.075   0.371 -0.1483 -0.7789 -0.3083
  131DMF     N1 2051   2.557   0.959   0.459 -0.4926  0.7216 -0.3085
  131DMF     C2 2052   2.627   0.840   0.418 -0.2957  0.1007 -1.1208
  131DMF     C3 2053   2.508   0.960   0.591  0.6539  0.2665  0.0491
  131DMF     O1 2054   2.426   1.042   0.636  0.2940  0.5591  0.3105
  131DMF     H1 2055   2.583   1.165   0.421 -0.2226  0.2793 -2.0874
  131DMF     H2 2056   2.442   1.101   0.344 -0.3775 -0.2206  1.0819
  131DMF     H3 2057   2.589   1.050   0.274  2.1465 -0.4298  0.6036
  131DMF     H4 2058   2.716   0.823   0.480 -0.3135 -1.2217 -1.4473
  131DMF     H5 2059   2.664   0.856   0.316 -0.0639 -1.8329 -1.3663
  131DMF     H6 2060   2.564   0.751   0.424  0.0855 -0.1073 -0.0166
  131DMF     H7 2061   2.538   0.875   0.655  0.6839  0.0088 -0.3129
  132DMF     C1 2062   2.382   0.915   1.376  0.2588  0.1611  0.0599
  132DMF     N1 2063   2.312   1.017   1.457 -0.2254  0.2788 -0.2379
  132DMF     C2 2064   2.395   1.142   1.489 -0.2077 -0.3766  0.0438
  132DMF     C3 2065   2.192   0.995   1.525  0.0297 -0.3681 -0.6584
  132DMF     O1 2066   2.116   0.891   1.512  0.3094 -0.1553 -0.2113
  132DMF     H1 2067   2.487   0.946   1.380  0.5218 -0.7857  0.6520
  132DMF     H2 2068   2.341   0.925   1.275 -1.1667 -1.3500  0.4674
  132DMF     H3 2069   2.375   0.817   1.425 -1.1734  1.3756  2.3444
  132DMF     H4 2070   2.499   1.127   1.458  0.5338  1.1716  1.6840
  132DMF     H5 2071   2.396   1.153   1.598 -0.7262 -0.2766  0.0425
  132DMF     H6 2072   2.360   1.235   1.444 -1.0697 -1.6877 -2.0693
  132DMF     H7 2073   2.170   1.076   1.597  0.8163 -2.4627  2.0456
  133DMF     C1 2074   0.849   1.512   2.956 -0.0236  0.4487  0.2190
  133DMF     N1 2075   0.874   1.653   2.964  0.2558 -0.3747 -1.1423
  133DMF     C2 2076   1.013   1.696   2.969  0.4917  0.0049 -0.6693
  133DMF     C3 2077   0.769   1.751   2.953  0.3989 -0.3883 -0.4154
  133DMF     O1 2078   0.650   1.723   2.948 -0.2747 -0.1492 -0.2696
  133DMF     H1 2079   0.763   1.493   3.022 -0.5788 -0.0245 -0.6351
  133DMF     H2 2080   0.939   1.466   2.998  0.8912  2.7217  0.8431
  133DMF     H3 2081   0.827   1.472   2.856  1.6993 -0.1630  0.0697
  133DMF     H4 2082   1.015   1.805   2.969 -1.1127  0.0482 -0.4608
  133DMF     H5 2083   1.077   1.644   2.896  1.3087 -2.1324  1.4901
  133DMF     H6 2084   1.061   1.659   3.060 -0.6575  2.4888  1.0002
  133DMF     H7 2085   0.804   1.854   2.935  0.1739 -0.1149  0.6596
  134DMF     C1 2086   1.384   0.440   1.358 -0.1805  0.4499 -0.4023
  134DMF     N1 2087   1.419   0.345   1.468 -0.4878 -0.8487 -0.2712
  134DMF     C2 2088   1.322   0.252   1.511  0.7815  0.7834  0.0532
  134DMF     C3 2089   1.532   0.369   1.552 -0.5660 -0.4069  0.0540
  134DMF     O1 2090   1.591   0.473   1.551 -0.3302 -0.2860  0.1930
  134DMF     H1 2091   1.479   0.465   1.309 -0.1801 -1.0909 -1.1984
  134DMF     H2 2092   1.344   0.532   1.403 -0.7210 -1.1855  2.6015
  134DMF     H3 2093   1.316   0.395   1.286 -0.1968 -0.9359  0.4564
  134DMF     H4 2094   1.383   0.166   1.541  1.5058  0.3523 -2.4971
  134DMF     H5 2095   1.249   0.227   1.433  1.0451 -0.0326  0.0588
  134DMF     H6 2096   1.257   0.293   1.589  1.1797  0.0260  0.7946
  134DMF     H7 2097   1.557   0.290   1.626  0.7885 -1.0229 -1.0269
  135DMF     C1 2098   1.284   2.756   2.793 -0.7851  0.4853 -0.1356
  135DMF     N1 2099   1.325   2.754   2.936 -0.2559  0.4901  0.2951
  135DMF     C2 2100   1.353   2.615   2.991 -0.2535 -0.2487  0.1972
  135DMF     C3 2101   1.321   2.871   3.015 -0.3414  0.4607 -0.3596
  135DMF     O1 2102   1.280   2.980   2.974 -0.5337  0.0347 -0.2045
  135DMF     H1 2103   1.307   2.854   2.749  3.5253  0.8891  2.7593
  135DMF     H2 2104   1.174   2.754   2.790 -0.8684  2.7463  0.5111
  135DMF     H3 2105   1.330   2.672   2.741  0.4221  0.7775  0.4488
  135DMF     H4 2106   1.458   2.592   2.969 -0.1672  2.0626 -2.0961
  135DMF     H5 2107   1.294   2.535   2.944 -0.5236  0.5747 -0.8761
  135DMF     H6 2108   1.337   2.610   3.099 -1.0380  0.6421  0.1290
  135DMF     H7 2109   1.348   2.847   3.119 -1.4734 -1.9971 -0.5986
  136DMF     C1 2110   1.072   1.160   3.294  0.0146 -0.0977 -0.0598
  136DMF     N1 2111   0.959   1.089   3.228  0.4414  0.1697 -0.1194
  136DMF     C2 2112   0.893   1.157   3.111 -0.6613  0.0780  0.2143
  136DMF     C3 2113   0.907   0.968   3.269  0.7464 -0.5399  0.1215
  136DMF     O1 2114   0.948   0.899   3.366 -0.2760 -0.4992 -0.1572
  136DMF     H1 2115   1.038   1.240   3.361  0.8103  0.7072 -0.5993
  136DMF     H2 2116   1.139   1.206   3.220 -0.7553 -0.1012 -0.7640
  136DMF     H3 2117   1.124   1.089   3.359 -0.3219  1.5727  2.1247
  136DMF     H4 2118   0.785   1.164   3.132 -1.0801  0.6146 -1.9763
  136DMF     H5 2119   0.899   1.094   3.021 -0.9792  0.5737 -0.1660
  136DMF     H6 2120   0.935   1.254   3.081 -0.4477 -0.1515 -0.2323
  136DMF     H7 2121   0.816   0.941   3.212 -0.1269 -1.5822  1.9430
  137DMF     C1 2122   3.204   0.487   1.046 -0.4439  0.0627 -0.3838
  137DMF     N1 2123   3.241   0.605   0.970 -1.0050  0.0637 -0.2153
  137DMF     C2 2124   3.284   0.579   0.832 -0.0268 -0.1403 -0.2890
  137DMF     C3 2125   3.235   0.738   1.021 -0.2379 -0.6554  0.2860
  137DMF     O1 2126   3.205   0.759   1.133 -0.3514 -0.0708 -0.4962
  137DMF     H1 2127   3.165   0.398   0.995 -1.5093 -2.0708  3.9418
  137DMF     H2 2128   3.123   0.518   1.114 -0.3863 -0.8647  0.1054
  137DMF     H3 2129   3.283   0.456   1.114 -0.6973  1.5903  0.6414
  137DMF     H4 2130   3.340   0.658   0.782 -0.2359 -0.6865 -1.4137
  137DMF     H5 2131   3.190   0.588   0.775 -0.1320  0.1948 -0.0649
  137DMF     H6 2132   3.334   0.482   0.820 -1.3911 -0.9441  0.3069
  137DMF     H7 2133   3.257   0.815   0.944 -2.0118 -1.3641 -0.9827
  138DMF     C1 2134   1.067   2.064   2.879 -0.1437  0.2457  0.2547
  138DMF     N1 2135   1.017   2.172   2.966 -0.0074  0.4153  0.0994
  138DMF     C2 2136   1.073   2.310   2.955  0.4123 -0.5640  0.2076
  138DMF     C3 2137   0.928   2.147   3.067 -0.0895 -0.1716  0.5233
  138DMF     O1 2138   0.887   2.037   3.099  0.0067 -0.1413 -0.5104
  138DMF     H1 2139   1.114   1.989   2.944  2.2633  1.2330 -0.3037
  138DMF     H2 2140   1.145   2.089   2.807 -0.1124  0.9161  0.5214
  138DMF     H3 2141   0.983   2.029   2.818  0.2505 -1.7116  0.7755
  138DMF     H4 2142   1.134   2.308   2.863 -1.6073 -1.5386 -1.1562
  138DMF     H5 2143   1.136   2.332   3.042  0.9665  0.0923 -0.3565
  138DMF     H6 2144   0.994   2.385   2.941 -2.1181 -2.9127  1.2839
  138DMF     H7 2145   0.894   2.242   3.114 -1.5298 -0.7510  0.6864
  139DMF     C1 2146   0.126   2.511   1.508  1.1071  0.0158 -0.1360
  139DMF     N1 2147   0.254   2.563   1.545 -0.3450  0.7215  1.1086
  139DMF     C2 2148   0.271   2.713   1.554 -0.4381 -0.2368 -0.2246
  139DMF     C3 2149   0.362   2.474   1.568  0.6025  0.0554 -0.5092
  139DMF     O1 2150   0.361   2.353   1.555  0.4457 -0.7560 -0.5635
  139DMF     H1 2151   0.122   2.480   1.403  0.9151 -1.1052  0.1930
  139DMF     H2 2152   0.048   2.585   1.531  0.8027  0.3285 -2.1018
  139DMF     H3 2153   0.103   2.422   1.567 -0.3748  1.5090  1.5776
  139DMF     H4 2154   0.267   2.756   1.453  1.0657 -0.2849 -0.3220
  139DMF     H5 2155   0.370   2.736   1.595 -0.6639  0.3484  0.0091
  139DMF     H6 2156   0.193   2.761   1.615  0.8337  1.6701 -0.0574
  139DMF     H7 2157   0.460   2.520   1.592  0.0972  0.1526  1.4239
  140DMF     C1 2158   2.247   1.159   2.771 -0.1644  0.0215  0.0398
  140DMF     N1 2159   2.122   1.092   2.791  0.4653 -0.5136 -0.2160
  140DMF     C2 2160   2.072   1.056   2.930 -0.0366  0.9741  0.5554
  140DMF     C3 2161   2.036   1.076   2.679  0.5208 -0.4981 -0.8355
  140DMF     O1 2162   2.054   1.122   2.569  0.0333  0.3421 -0.0059
  140DMF     H1 2163   2.226   1.266   2.787 -1.9597  0.0247 -2.0653
  140DMF     H2 2164   2.275   1.136   2.667 -0.0156 -0.6465  0.2294
  140DMF     H3 2165   2.322   1.113   2.837 -1.0603  1.2444  1.9416
  140DMF     H4 2166   2.144   1.010   2.999 -1.6126 -2.1039  0.2047
  140DMF     H5 2167   1.995   0.979   2.926  0.5011  0.4446  0.4039
  140DMF     H6 2168   2.032   1.143   2.984  1.4510  1.8169  0.3205
  140DMF     H7 2169   1.939   1.031   2.708  0.7555 -0.1568  0.5594
  141DMF     C1 2170   1.066   2.647   0.972  0.5458 -0.7446  0.2241
  141DMF     N1 2171   1.059   2.641   1.124  0.5634  0.6418  0.3645
  141DMF     C2 2172   1.174   2.711   1.197 -0.2202  0.4099  0.4707
  141DMF     C3 2173   0.932   2.614   1.188  0.5034 -0.5967 -0.1149
  141DMF     O1 2174   0.834   2.570   1.122 -0.0811  0.7282  0.3053
  141DMF     H1 2175   1.140   2.575   0.935  2.6209  0.1415  2.5162
  141DMF     H2 2176   1.097   2.745   0.934  0.0410 -0.1573  1.3282
  141DMF     H3 2177   0.968   2.620   0.929  0.7454 -1.1863  0.0360
  141DMF     H4 2178   1.134   2.809   1.225  0.0558  0.4528  0.7197
  141DMF     H5 2179   1.260   2.723   1.131 -1.3710 -0.0092 -1.1186
  141DMF     H6 2180   1.196   2.656   1.290  0.4847  1.1898  0.7713
  141DMF     H7 2181   0.948   2.628   1.296  0.5410  1.0738 -0.3275
  142DMF     C1 2182   2.228   2.551   1.553 -0.3189 -0.1451 -0.1048
  142DMF     N1 2183   2.184   2.498   1.431  0.4272  0.5324  0.4648
  142DMF     C2 2184   2.232   2.556   1.300  0.9185  0.0465  0.0889
  142DMF     C3 2185   2.125   2.375   1.415 -0.3886 -0.5242 -1.3473
  142DMF     O1 2186   2.067   2.320   1.510  0.1062  0.1701 -0.2460
  142DMF     H1 2187   2.336   2.569   1.550 -0.3270  0.3451  1.8331
  142DMF     H2 2188   2.232   2.471   1.628 -0.9758 -0.8963 -0.8604
  142DMF     H3 2189   2.176   2.641   1.587 -0.4155 -1.0827  2.4050
  142DMF     H4 2190   2.147   2.576   1.234  1.5428  1.2317 -0.3705
  142DMF     H5 2191   2.301   2.490   1.247 -0.1968 -0.9442 -0.1598
  142DMF     H6 2192   2.279   2.654   1.314  1.3808  0.0054 -1.1743
  142DMF     H7 2193   2.148   2.326   1.319 -0.6192  0.3808 -1.8673
  143DMF     C1 2194   0.425   1.999   1.589 -0.2896  0.1611  0.3036
  143DMF     N1 2195   0.501   1.872   1.558 -0.2410  0.1719 -0.3811
  143DMF     C2 2196   0.654   1.880   1.556  0.1142  0.1158  0.6496
  143DMF     C3 2197   0.432   1.752   1.565  0.2534  0.1062 -0.3015
  143DMF     O1 2198   0.309   1.744   1.560 -0.3341  0.3526  0.6884
  143DMF     H1 2199   0.395   2.052   1.498 -0.2093  1.6558  1.1327
  143DMF     H2 2200   0.490   2.077   1.631  0.9991 -0.1482 -1.0270
  143DMF     H3 2201   0.337   1.980   1.651  1.3308  0.7173  2.8303
  143DMF     H4 2202   0.704   1.785   1.582  0.4480  0.0518 -0.2310
  143DMF     H5 2203   0.691   1.951   1.631  2.3074 -0.4269  0.1119
  143DMF     H6 2204   0.692   1.931   1.467 -2.4693 -1.5126 -1.4658
  143DMF     H7 2205   0.500   1.666   1.575 -2.0552 -1.8977 -1.2959
  144DMF     C1 2206   1.497   3.120   3.340 -0.3757  0.2491  0.1838
  144DMF     N1 2207   1.590   3.240   3.333 -0.4806 -0.4627 -0.9967
  144DMF     C2 2208   1.562   3.360   3.416 -0.2626 -0.2534 -0.7360
  144DMF     C3 2209   1.709   3.234   3.267 -0.1772 -0.9548 -0.5309
  144DMF     O1 2210   1.748   3.137   3.210 -0.1191  0.2477  0.5654
  144DMF     H1 2211   1.393   3.155   3.340 -0.9736 -1.4124 -1.5197
  144DMF     H2 2212   1.519   3.055   3.425 -1.2816  1.5833  1.4544
  144DMF     H3 2213   1.498   3.056   3.251 -0.9587  0.2336  0.1891
  144DMF     H4 2214   1.538   3.318   3.514 -0.6139 -1.2079 -1.2270
  144DMF     H5 2215   1.476   3.413   3.373  0.1579  0.9232 -0.1603
  144DMF     H6 2216   1.643   3.434   3.420  0.9296 -1.6490  1.2855
  144DMF     H7 2217   1.761   3.332   3.260 -2.3927  0.4441  1.6766
  145DMF     C1 2218   2.565   3.237   1.249  0.3757 -0.4514  0.4723
  145DMF     N1 2219   2.450   3.240   1.163 -0.3682  0.0975 -0.0941
  145DMF     C2 2220   2.324   3.180   1.208 -0.8667 -0.4185  1.0259
  145DMF     C3 2221   2.444   3.329   1.051  0.4127 -0.1683 -0.0132
  145DMF     O1 2222   2.536   3.397   1.015  0.3178  0.1668  0.1475
  145DMF     H1 2223   2.655   3.228   1.186 -0.7993 -0.0794 -1.2973
  145DMF     H2 2224   2.574   3.140   1.300  1.1391  1.0874  3.3774
  145DMF     H3 2225   2.565   3.321   1.320 -3.8371 -0.5053  0.6276
  145DMF     H4 2226   2.256   3.148   1.128 -0.9360 -0.9888  1.3094
  145DMF     H5 2227   2.269   3.261   1.258  1.4998 -0.4526  3.8278
  145DMF     H6 2228   2.354   3.101   1.278 -1.0753 -1.0487  0.4033
  145DMF     H7 2229   2.347   3.321   0.998 -0.2072 -0.9709  1.2102
  146DMF     C1 2230   2.729   0.944   1.206 -0.2124 -0.5410 -0.7625
  146DMF     N1 2231   2.743   0.797   1.197 -0.4127  0.3698 -0.1701
  146DMF     C2 2232   2.862   0.728   1.246  0.1974 -0.0358  0.2257
  146DMF     C3 2233   2.638   0.721   1.142 -0.3013 -0.3909  0.4735
  146DMF     O1 2234   2.533   0.767   1.100  0.1210  0.4099 -0.0083
  146DMF     H1 2235   2.804   0.980   1.135  1.3513 -0.9968  0.6167
  146DMF     H2 2236   2.750   0.976   1.308 -1.8041  0.3985 -0.7187
  146DMF     H3 2237   2.627   0.973   1.178 -0.3731 -1.0424 -0.7015
  146DMF     H4 2238   2.854   0.621   1.221  0.1059 -0.0381  0.2647
  146DMF     H5 2239   2.865   0.739   1.355 -4.4504 -0.7744  0.5221
  146DMF     H6 2240   2.955   0.772   1.208  0.6314 -0.9363  0.2280
  146DMF     H7 2241   2.655   0.611   1.144  2.2891 -0.0233  0.7422
  147DMF     C1 2242   0.434   1.424   0.325 -0.8074  0.1591  0.3524
  147DMF     N1 2243   0.300   1.466   0.299 -0.0032 -0.2242 -0.0842
  147DMF     C2 2244   0.267   1.613   0.289 -0.7996  0.1005  0.9921
  147DMF     C3 2245   0.196   1.375   0.302 -0.2301  0.0313  0.1702
  147DMF     O1 2246   0.213   1.255   0.317 -0.3138 -0.4327 -0.0820
  147DMF     H1 2247   0.487   1.413   0.230  0.5094  0.4853  1.0483
  147DMF     H2 2248   0.431   1.332   0.384  1.2807 -0.3748 -0.3337
  147DMF     H3 2249   0.481   1.501   0.386 -0.0214  1.7339 -2.1522
  147DMF     H4 2250   0.188   1.634   0.216 -0.3558  0.0112  0.4825
  147DMF     H5 2251   0.362   1.666   0.272 -1.2341  0.6145  0.1428
  147DMF     H6 2252   0.228   1.645   0.386 -1.8567  0.1949  0.5406
  147DMF     H7 2253   0.101   1.430   0.312  0.0406  0.6370 -0.5565
  148DMF     C1 2254   0.758   1.379   1.221 -0.2981  0.1090 -0.1761
  148DMF     N1 2255   0.671   1.383   1.106  0.6663 -0.1435  0.3599
  148DMF     C2 2256   0.670   1.506   1.028  0.4784 -0.4456  0.5374
  148DMF     C3 2257   0.601   1.269   1.064 -0.3807  0.5664 -0.2237
  148DMF     O1 2258   0.621   1.162   1.116  0.7333  0.1776  0.3053
  148DMF     H1 2259   0.710   1.441   1.299  0.7753 -0.5346  1.0112
  148DMF     H2 2260   0.849   1.432   1.190  0.4295 -1.7402 -1.2492
  148DMF     H3 2261   0.775   1.278   1.259 -2.5180 -0.4447 -0.5411
  148DMF     H4 2262   0.579   1.516   0.968  2.5088  1.4137 -2.3312
  148DMF     H5 2263   0.745   1.508   0.948  0.8900 -2.5594  0.8322
  148DMF     H6 2264   0.690   1.580   1.106 -0.0040 -1.0727  1.2661
  148DMF     H7 2265   0.528   1.284   0.982  0.9394 -0.8537 -1.6970
  149DMF     C1 2266   0.836   1.231   1.584  0.5792 -0.4276  0.0784
  149DMF     N1 2267   0.796   1.374   1.556  0.3767 -0.1762 -0.1788
  149DMF     C2 2268   0.650   1.413   1.557  0.1503  0.6573  0.1023
  149DMF     C3 2269   0.893   1.470   1.556  0.2961  0.1050  0.6056
  149DMF     O1 2270   1.008   1.437   1.572  0.2038  0.1209 -0.4064
  149DMF     H1 2271   0.746   1.171   1.601 -1.6456  2.2110 -1.9686
  149DMF     H2 2272   0.910   1.220   1.664  1.1740  0.4926 -0.3346
  149DMF     H3 2273   0.894   1.191   1.499  0.2079  0.7999 -0.7697
  149DMF     H4 2274   0.613   1.391   1.456 -0.5538  1.4604  0.1835
  149DMF     H5 2275   0.651   1.520   1.579  1.1024  0.5590  0.5495
  149DMF     H6 2276   0.598   1.354   1.634 -0.0270 -0.5183 -0.9075
  149DMF     H7 2277   0.851   1.572   1.549  2.0616  0.9645  1.9529
  150DMF     C1 2278   0.965   3.289   0.610  0.2904 -0.1052  0.0492
  150DMF     N1 2279   0.956   3.299   0.463 -0.2837  0.0097  0.3114
  150DMF     C2 2280   0.942   3.176   0.385 -0.2529 -0.4451 -0.1238
  150DMF     C3 2281   0.981   3.418   0.391  0.2429  0.4552 -0.2032
  150DMF     O1 2282   0.982   3.524   0.451  0.1385 -0.0572 -0.0391
  150DMF     H1 2283   1.069   3.311   0.639  1.0697 -2.0016 -1.2106
  150DMF     H2 2284   0.927   3.195   0.651  1.2717 -0.0883  1.0146
  150DMF     H3 2285   0.909   3.377   0.645 -1.0068 -1.2199  0.7975
  150DMF     H4 2286   1.000   3.087   0.411  0.0964 -0.2564 -0.2492
  150DMF     H5 2287   0.946   3.194   0.277 -2.1087  1.0730  0.0341
  150DMF     H6 2288   0.838   3.149   0.409 -0.3803  0.0422 -0.1188
  150DMF     H7 2289   0.986   3.400   0.282 -1.5156 -0.4099 -0.1574
  151DMF     C1 2290   2.910   1.342   0.719  0.4458  0.6197 -0.1241
  151DMF     N1 2291   2.757   1.368   0.710 -0.3007  0.0150 -0.1579
  151DMF     C2 2292   2.663   1.268   0.655  0.3409  0.2670 -0.1471
  151DMF     C3 2293   2.703   1.492   0.764  0.0188  0.1822  0.5030
  151DMF     O1 2294   2.781   1.579   0.806 -0.0592 -0.0058  0.2450
  151DMF     H1 2295   2.932   1.296   0.816 -0.2748 -1.2385 -0.8034
  151DMF     H2 2296   2.982   1.424   0.712  2.5981 -1.4431 -4.4105
  151DMF     H3 2297   2.939   1.265   0.645  3.2479  2.6985 -1.2588
  151DMF     H4 2298   2.575   1.247   0.717  1.8294 -0.1287  1.8676
  151DMF     H5 2299   2.713   1.175   0.628  1.3019  0.5176  0.7515
  151DMF     H6 2300   2.630   1.307   0.558 -0.1339  1.1200  0.3455
  151DMF     H7 2301   2.594   1.504   0.752 -0.0238  0.1722  0.8848
  152DMF     C1 2302   0.353   2.432   1.176  0.6201  0.4093  0.6363
  152DMF     N1 2303   0.475   2.506   1.150  0.2284 -0.6352  0.1477
  152DMF     C2 2304   0.566   2.460   1.040  0.0198  0.3756 -0.2912
  152DMF     C3 2305   0.498   2.641   1.192  0.3618  0.0593 -0.9040
  152DMF     O1 2306   0.430   2.696   1.273  0.0177  0.7333  0.3132
  152DMF     H1 2307   0.370   2.324   1.162 -3.7625 -0.4399  1.0725
  152DMF     H2 2308   0.277   2.472   1.109  0.2937 -1.0744  0.0922
  152DMF     H3 2309   0.308   2.446   1.275  1.4131  0.2787  1.0150
  152DMF     H4 2310   0.655   2.412   1.082  0.3945  1.9984  0.8184
  152DMF     H5 2311   0.601   2.542   0.975  1.5664 -0.7531 -0.9380
  152DMF     H6 2312   0.518   2.384   0.978 -0.1550  0.9080 -0.8174
  152DMF     H7 2313   0.582   2.692   1.140  1.0841 -0.4507 -0.2568
  153DMF     C1 2314   2.690   2.195   0.342 -1.1888 -0.3894  0.1633
  153DMF     N1 2315   2.595   2.076   0.350 -0.1301  0.3230  0.0723
  153DMF     C2 2316   2.496   2.077   0.458  0.1634  0.3439  0.8300
  153DMF     C3 2317   2.628   1.959   0.289 -0.1903 -0.6532  0.5985
  153DMF     O1 2318   2.734   1.944   0.226  0.2130  0.5962  0.2792
  153DMF     H1 2319   2.743   2.194   0.246 -2.0013 -1.2755 -0.2911
  153DMF     H2 2320   2.763   2.195   0.423  0.1011 -2.0112 -0.9738
  153DMF     H3 2321   2.635   2.287   0.368  1.3998  1.2774 -0.1109
  153DMF     H4 2322   2.397   2.098   0.415  0.3779 -0.1892  0.0634
  153DMF     H5 2323   2.527   2.155   0.528  0.1438 -0.1413  1.3748
  153DMF     H6 2324   2.496   1.979   0.508  2.1079  0.2430  0.6374
  153DMF     H7 2325   2.561   1.873   0.305 -1.3497  0.2670  0.7831
  154DMF     C1 2326   2.130   2.369   0.103 -0.0276  0.2250  0.3440
  154DMF     N1 2327   2.002   2.402   0.049  0.2135  0.3491  0.0151
  154DMF     C2 2328   1.957   2.541   0.069 -0.3899  0.1485  0.9315
  154DMF     C3 2329   1.928   2.311  -0.031 -0.0195  0.5438  0.4286
  154DMF     O1 2330   1.971   2.200  -0.060  0.7046 -0.2174  0.7797
  154DMF     H1 2331   2.118   2.363   0.212 -1.1269 -0.6555  0.1853
  154DMF     H2 2332   2.198   2.452   0.081 -1.0690  0.5481 -1.7600
  154DMF     H3 2333   2.173   2.277   0.063  1.4550  1.2006 -0.3557
  154DMF     H4 2334   1.875   2.540   0.143 -0.0825  1.3428  1.3023
  154DMF     H5 2335   1.930   2.578  -0.030  1.6882  0.5452  0.5036
  154DMF     H6 2336   2.042   2.602   0.102 -0.2314 -1.3383  3.4538
  154DMF     H7 2337   1.829   2.341  -0.072  0.4807  0.2561 -1.0360
  155DMF     C1 2338   1.842   2.106   0.301 -0.0335  0.4718 -0.2277
  155DMF     N1 2339   1.700   2.112   0.336 -0.2438  0.1660 -0.2024
  155DMF     C2 2340   1.653   2.101   0.479 -0.4630  0.1433 -0.4839
  155DMF     C3 2341   1.604   2.137   0.241  0.2221  0.0959  0.4043
  155DMF     O1 2342   1.626   2.131   0.119 -0.3390 -0.0757  0.2752
  155DMF     H1 2343   1.855   2.167   0.211  1.6435  1.4446  0.6514
  155DMF     H2 2344   1.868   2.001   0.283 -0.5021 -0.2103  2.8638
  155DMF     H3 2345   1.908   2.135   0.384  0.9599  1.1727 -1.2433
  155DMF     H4 2346   1.723   2.039   0.537  0.2832  0.7316 -0.7382
  155DMF     H5 2347   1.560   2.043   0.479 -1.2064  1.2606  1.9010
  155DMF     H6 2348   1.652   2.203   0.518  0.2760  0.0701 -0.2652
  155DMF     H7 2349   1.502   2.161   0.278 -0.2053 -0.1753 -0.5612
  156DMF     C1 2350   3.416   0.536   0.528  0.2332  0.5642  0.1329
  156DMF     N1 2351   3.352   0.667   0.503  0.3166  0.3920  0.3628
  156DMF     C2 2352   3.217   0.672   0.440  0.4101 -0.1956 -0.2654
  156DMF     C3 2353   3.420   0.788   0.545 -0.5068 -0.1381 -0.1045
  156DMF     O1 2354   3.527   0.781   0.596  0.6767 -0.1726  0.7086
  156DMF     H1 2355   3.428   0.517   0.635  0.1729 -1.5823 -0.2250
  156DMF     H2 2356   3.513   0.542   0.477  0.2109 -1.4727 -0.1705
  156DMF     H3 2357   3.354   0.454   0.490  1.3689 -0.5741  0.7005
  156DMF     H4 2358   3.157   0.748   0.491 -0.6829 -1.3927  0.2585
  156DMF     H5 2359   3.171   0.575   0.459  1.2845 -0.3249  1.2667
  156DMF     H6 2360   3.229   0.691   0.332  0.5546  0.4318 -0.1416
  156DMF     H7 2361   3.367   0.882   0.524 -1.5552  0.0072  2.9304
  157DMF     C1 2362   3.259   0.428   0.159  0.5814  0.1836  0.1174
  157DMF     N1 2363   3.251   0.290   0.113 -0.4515 -0.6848 -0.0510
  157DMF     C2 2364   3.375   0.202   0.130  0.0344 -0.2659 -1.1359
  157DMF     C3 2365   3.137   0.234   0.069  0.5259 -0.1775 -0.1777
  157DMF     O1 2366   3.038   0.298   0.048  0.3187  0.0348 -0.1397
  157DMF     H1 2367   3.231   0.498   0.080  2.6793 -1.1552 -1.8821
  157DMF     H2 2368   3.366   0.445   0.175  0.8673 -1.4652  0.0845
  157DMF     H3 2369   3.199   0.433   0.251 -2.4627 -0.7247 -1.7686
  157DMF     H4 2370   3.396   0.197   0.238 -0.8284 -1.4887 -1.0074
  157DMF     H5 2371   3.458   0.250   0.077  1.0314 -1.1310 -0.3972
  157DMF     H6 2372   3.366   0.100   0.089  3.0730 -0.7622 -0.6789
  157DMF     H7 2373   3.140   0.124   0.065 -0.2608 -0.1445 -1.6399
  158DMF     C1 2374   0.779   1.859   2.255  0.3320  1.2724  0.0118
  158DMF     N1 2375   0.880   1.957   2.247  0.0846 -0.1974  0.2617
  158DMF     C2 2376   1.018   1.910   2.258 -0.2952 -0.0267 -0.3007
  158DMF     C3 2377   0.858   2.098   2.234  0.0486  0.7179  0.0341
  158DMF     O1 2378   0.746   2.144   2.219 -0.1799  0.0880  0.4518
  158DMF     H1 2379   0.772   1.802   2.161 -1.6282 -0.4791  1.1894
  158DMF     H2 2380   0.683   1.912   2.269  0.5168  1.7637 -0.5400
  158DMF     H3 2381   0.798   1.798   2.343  0.5380  0.8734 -0.3089
  158DMF     H4 2382   1.034   1.808   2.219 -1.4064  0.2005 -1.3969
  158DMF     H5 2383   1.044   1.909   2.365 -2.0279  0.2719  0.1451
  158DMF     H6 2384   1.086   1.974   2.202  0.3794 -0.7261 -0.2940
  158DMF     H7 2385   0.952   2.155   2.249  1.3947 -1.5804  0.7633
  159DMF     C1 2386   1.750   0.005   0.359  0.1611 -0.0403  0.0200
  159DMF     N1 2387   1.835   0.128   0.381  0.0549  0.0105 -0.1057
  159DMF     C2 2388   1.846   0.225   0.270 -0.0453  0.3909 -0.3059
  159DMF     C3 2389   1.928   0.125   0.482 -0.4304  0.5440  0.5250
  159DMF     O1 2390   1.949   0.032   0.550  0.0927  0.4227  0.1048
  159DMF     H1 2391   1.813  -0.050   0.288  1.5606  1.0845  0.3635
  159DMF     H2 2392   1.655   0.027   0.309 -0.8775 -1.7586  1.1747
  159DMF     H3 2393   1.727  -0.040   0.457  0.6549  1.1550  0.7027
  159DMF     H4 2394   1.915   0.305   0.297  0.1766  0.1207 -0.0687
  159DMF     H5 2395   1.744   0.260   0.252 -1.0362 -2.4731 -0.5006
  159DMF     H6 2396   1.884   0.166   0.185  2.3300 -2.3374  2.5406
  159DMF     H7 2397   1.993   0.214   0.485  1.6194 -0.8279 -1.7943
  160DMF     C1 2398   0.077   2.234   3.585 -0.7881 -0.6218  0.1153
  160DMF     N1 2399   0.042   2.353   3.500  0.3510 -0.1260  0.2845
  160DMF     C2 2400  -0.080   2.338   3.416 -0.2944 -0.3703 -0.0508
  160DMF     C3 2401   0.121   2.474   3.496  0.4725 -0.1184 -0.1570
  160DMF     O1 2402   0.219   2.492   3.567 -0.0375  1.1999 -0.1216
  160DMF     H1 2403   0.095   2.147   3.521  1.2621  0.1335 -0.3848
  160DMF     H2 2404  -0.005   2.215   3.656  0.2955 -0.4486  1.4413
  160DMF     H3 2405   0.175   2.244   3.633  0.1927 -0.7310 -1.8459
  160DMF     H4 2406  -0.125   2.437   3.399  1.4635  0.4250 -0.0846
  160DMF     H5 2407  -0.158   2.280   3.467 -0.5889 -0.5696 -0.7240
  160DMF     H6 2408  -0.061   2.290   3.320 -2.1445 -0.0097 -0.6246
  160DMF     H7 2409   0.081   2.555   3.433 -0.0895  1.1990  1.8545
  161DMF     C1 2410   2.509   2.557   2.287  0.1122  0.2205  0.0517
  161DMF     N1 2411   2.399   2.467   2.231 -0.5314  0.2252  0.1757
  161DMF     C2 2412   2.408   2.322   2.241  0.3100  0.3282 -0.1555
  161DMF     C3 2413   2.270   2.520   2.212  0.1691  0.4289 -0.2495
  161DMF     O1 2414   2.248   2.640   2.226 -0.0394  0.1280 -0.3290
  161DMF     H1 2415   2.523   2.522   2.390  0.2475  2.2503  0.7407
  161DMF     H2 2416   2.486   2.664   2.284  3.3267  0.9374 -1.0065
  161DMF     H3 2417   2.601   2.534   2.232  0.7219 -1.9453  1.8797
  161DMF     H4 2418   2.385   2.291   2.343 -0.9125  1.1827 -0.1705
  161DMF     H5 2419   2.512   2.292   2.223  0.5006  1.6579 -1.3932
  161DMF     H6 2420   2.344   2.273   2.167  0.3105  1.0078 -0.6132
  161DMF     H7 2421   2.194   2.446   2.182  1.8656 -0.7593 -1.7956
  162DMF     C1 2422   2.386   0.834   2.374 -0.3000  0.8649  0.4330
  162DMF     N1 2423   2.499   0.763   2.439 -0.7256  0.7303  0.0361
  162DMF     C2 2424   2.618   0.750   2.358  0.2222 -0.2845  0.5208
  162DMF     C3 2425   2.503   0.721   2.569  0.5989  0.1151  0.3441
  162DMF     O1 2426   2.410   0.736   2.649 -0.7103  0.5731  0.3558
  162DMF     H1 2427   2.293   0.824   2.433 -0.6954 -2.1707 -0.6149
  162DMF     H2 2428   2.377   0.787   2.276  2.0906  0.1390  0.5447
  162DMF     H3 2429   2.411   0.940   2.355 -2.4253  1.0465 -1.5902
  162DMF     H4 2430   2.630   0.646   2.325  0.3933 -0.0053 -0.3142
  162DMF     H5 2431   2.702   0.778   2.422 -0.4409 -1.3517  1.8864
  162DMF     H6 2432   2.610   0.815   2.270 -0.0525 -2.5286 -1.1874
  162DMF     H7 2433   2.596   0.664   2.589  0.1665 -0.7908 -0.2165
  163DMF     C1 2434   3.155   3.233   3.527  0.4336  0.9084 -0.3897
  163DMF     N1 2435   3.207   3.246   3.662  0.4442 -0.6055 -0.1449
  163DMF     C2 2436   3.136   3.189   3.776 -0.2425  0.1960  0.3672
  163DMF     C3 2437   3.331   3.316   3.671 -0.1842 -0.2569 -0.3934
  163DMF     O1 2438   3.378   3.382   3.585  0.1154  0.0704  0.0383
  163DMF     H1 2439   3.105   3.135   3.516  0.0876  0.9886  0.4613
  163DMF     H2 2440   3.234   3.235   3.451 -0.5041  1.4204 -1.3616
  163DMF     H3 2441   3.074   3.305   3.515 -1.1225 -0.4379  1.7541
  163DMF     H4 2442   3.105   3.267   3.846  0.9145  1.5475 -0.5961
  163DMF     H5 2443   3.211   3.129   3.828 -0.1533 -1.0403 -1.1567
  163DMF     H6 2444   3.056   3.123   3.739  1.1150 -1.7694  0.8867
  163DMF     H7 2445   3.381   3.311   3.769 -1.2971 -1.0117  0.1525
  164DMF     C1 2446   3.340   0.945   2.466  0.3382 -0.6771  0.0388
  164DMF     N1 2447   3.426   0.948   2.345 -0.5561  0.2093  0.7776
  164DMF     C2 2448   3.442   1.078   2.269 -0.0013  0.0225  0.1782
  164DMF     C3 2449   3.487   0.831   2.299 -1.1056 -0.0112 -0.3273
  164DMF     O1 2450   3.480   0.731   2.369 -0.1403  0.0226  0.3292
  164DMF     H1 2451   3.235   0.936   2.437  0.4608  1.8091 -1.3477
  164DMF     H2 2452   3.358   1.036   2.525  0.2594 -1.1909  0.8604
  164DMF     H3 2453   3.370   0.856   2.523  1.2235 -0.5974 -0.2888
  164DMF     H4 2454   3.522   1.137   2.315  1.0785 -0.1348 -1.4815
  164DMF     H5 2455   3.352   1.141   2.273  2.2038  3.3687 -1.4191
  164DMF     H6 2456   3.481   1.071   2.168  2.3438  1.2268  0.9757
  164DMF     H7 2457   3.543   0.831   2.204 -0.1759  1.4044  0.1977
  165DMF     C1 2458   0.715   2.773   2.547 -0.1004 -0.8774  0.5697
  165DMF     N1 2459   0.830   2.863   2.529  0.6274 -0.4074 -0.1486
  165DMF     C2 2460   0.818   2.996   2.591  0.3120 -0.0130 -0.1462
  165DMF     C3 2461   0.951   2.816   2.476  0.4601 -0.2622 -0.0930
  165DMF     O1 2462   0.959   2.707   2.428  0.4659  0.5834  0.1869
  165DMF     H1 2463   0.620   2.820   2.517  1.1903  0.5060 -1.4224
  165DMF     H2 2464   0.710   2.747   2.654 -0.0032  1.0304  1.0482
  165DMF     H3 2465   0.737   2.683   2.487  1.8090 -1.5234  2.1805
  165DMF     H4 2466   0.885   3.065   2.539  0.3911 -0.7430 -1.0401
  165DMF     H5 2467   0.831   2.981   2.699 -0.9262  0.0545  0.0171
  165DMF     H6 2468   0.718   3.042   2.582 -0.3568 -0.7492  3.0968
  165DMF     H7 2469   1.033   2.890   2.485 -0.9435  1.1900  0.9517
  166DMF     C1 2470   0.477   0.916   0.945 -0.7828  0.0274  0.0600
  166DMF     N1 2471   0.368   0.824   0.891 -0.3062  0.3139  0.5840
  166DMF     C2 2472   0.238   0.891   0.867 -0.3467  0.2584  0.2761
  166DMF     C3 2473   0.399   0.702   0.829  0.6571 -0.4790  0.2328
  166DMF     O1 2474   0.514   0.653   0.828  0.1196 -0.3768  0.1112
  166DMF     H1 2475   0.558   0.863   0.997 -1.7469  0.1290  1.6781
  166DMF     H2 2476   0.440   0.989   1.017 -3.6115  0.0044 -1.3060
  166DMF     H3 2477   0.513   0.984   0.867  0.7664 -0.1274  0.6201
  166DMF     H4 2478   0.231   0.972   0.940 -0.6840  0.7563 -0.3036
  166DMF     H5 2479   0.159   0.816   0.886 -2.6889  1.6071 -3.6113
  166DMF     H6 2480   0.227   0.923   0.763 -0.2546  2.5872  0.9516
  166DMF     H7 2481   0.316   0.659   0.770  1.8935  0.7267 -2.5005
  167DMF     C1 2482   0.216   2.215   0.601  0.3271 -0.3346  0.2862
  167DMF     N1 2483   0.274   2.347   0.572 -0.0724  0.1994 -0.2162
  167DMF     C2 2484   0.240   2.396   0.436 -0.1093 -0.4300 -0.1053
  167DMF     C3 2485   0.370   2.406   0.657 -0.0296  0.3525  0.1967
  167DMF     O1 2486   0.401   2.355   0.759  0.1759 -0.0759  0.0815
  167DMF     H1 2487   0.262   2.179   0.694 -1.1324 -0.7948  0.8474
  167DMF     H2 2488   0.236   2.138   0.524 -2.9918 -1.4357  0.4383
  167DMF     H3 2489   0.111   2.230   0.627 -0.0877 -0.9879 -0.9531
  167DMF     H4 2490   0.136   2.432   0.438 -0.5518 -1.6796 -0.5362
  167DMF     H5 2491   0.266   2.331   0.352  0.5251  0.0157 -0.2586
  167DMF     H6 2492   0.298   2.485   0.411  0.0861 -0.6290 -0.3519
  167DMF     H7 2493   0.416   2.497   0.614  1.3828 -1.1275 -1.5323
  168DMF     C1 2494   1.436   3.374   0.123 -0.0451  0.1801 -0.3504
  168DMF     N1 2495   1.385   3.506   0.109 -0.4695  0.1210 -0.1560
  168DMF     C2 2496   1.275   3.543   0.206 -0.0868  0.3777  0.4125
  168DMF     C3 2497   1.433   3.599   0.013 -0.5669 -0.1255  0.1017
  168DMF     O1 2498   1.507   3.574  -0.076 -0.2335 -0.3827 -0.6412
  168DMF     H1 2499   1.490   3.372   0.219  2.4681  0.0301 -1.7251
  168DMF     H2 2500   1.508   3.353   0.043 -0.0906  0.1597 -0.3858
  168DMF     H3 2501   1.348   3.309   0.115  1.0128 -1.0231 -2.7175
  168DMF     H4 2502   1.180   3.510   0.164  1.2426 -3.2801  0.1079
  168DMF     H5 2503   1.283   3.653   0.210 -1.6293  0.4765  0.9798
  168DMF     H6 2504   1.289   3.509   0.309 -0.8230  1.1318  0.7632
  168DMF     H7 2505   1.404   3.704   0.032 -0.7072 -0.4733  1.8400
  169DMF     C1 2506   1.990   0.774   3.536 -0.1919  0.8886  0.9028
  169DMF     N1 2507   1.873   0.838   3.478  0.6022 -0.4324  0.1958
  169DMF     C2 2508   1.846   0.804   3.334  0.0014  0.1487  0.2741
  169DMF     C3 2509   1.800   0.934   3.549 -0.3989  0.0186  0.2568
  169DMF     O1 2510   1.837   0.972   3.657 -0.1429  0.0327 -0.1413
  169DMF     H1 2511   1.975   0.677   3.585  3.8315 -1.0319 -1.4035
  169DMF     H2 2512   2.043   0.843   3.603 -0.3380  2.7882 -0.8841
  169DMF     H3 2513   2.071   0.771   3.462 -2.1421 -0.4512 -1.2467
  169DMF     H4 2514   1.778   0.719   3.323 -0.8628  0.9679 -0.7791
  169DMF     H5 2515   1.943   0.775   3.292 -0.3088  0.1103 -0.4308
  169DMF     H6 2516   1.804   0.890   3.280  1.1771 -0.3916 -1.5649
  169DMF     H7 2517   1.723   0.986   3.488  0.9532  1.0560 -0.5730
  170DMF     C1 2518   0.105   2.632   2.220 -0.3058  0.3155  0.5350
  170DMF     N1 2519   0.109   2.682   2.360 -0.1580  0.1848  0.4232
  170DMF     C2 2520   0.234   2.664   2.441 -0.0481  0.1166 -0.2967
  170DMF     C3 2521  -0.009   2.723   2.421  0.2080  0.8289  0.1567
  170DMF     O1 2522  -0.110   2.757   2.356 -0.6103  0.1057 -0.1549
  170DMF     H1 2523   0.025   2.558   2.206  0.2961 -0.1804 -0.3377
  170DMF     H2 2524   0.200   2.582   2.195  0.1046  1.1310  0.4538
  170DMF     H3 2525   0.090   2.713   2.148 -0.2022 -0.0184  0.1313
  170DMF     H4 2526   0.210   2.606   2.531 -2.1814  0.2174 -0.7662
  170DMF     H5 2527   0.270   2.762   2.474 -1.7973  0.2687  1.2087
  170DMF     H6 2528   0.314   2.623   2.379  1.1327  0.0715  1.2330
  170DMF     H7 2529  -0.001   2.729   2.531  0.5523  2.2137  0.0631
  171DMF     C1 2530   2.168   1.084   0.421 -0.4542 -0.0006  0.3560
  171DMF     N1 2531   2.017   1.063   0.427 -0.0277  0.4667 -0.1935
  171DMF     C2 2532   1.944   1.163   0.509 -0.5577 -0.1186  0.1518
  171DMF     C3 2533   1.946   0.969   0.349  0.8187  0.8786  0.8935
  171DMF     O1 2534   2.002   0.904   0.264 -0.5351  0.0235  0.4543
  171DMF     H1 2535   2.210   1.066   0.521 -0.9472 -0.2891  0.5156
  171DMF     H2 2536   2.198   1.187   0.403  1.5114 -0.8968 -1.6891
  171DMF     H3 2537   2.215   1.029   0.339  2.8432  2.9141  0.1732
  171DMF     H4 2538   1.899   1.113   0.596  2.2105  1.7852  2.7813
  171DMF     H5 2539   1.861   1.205   0.450 -1.4022 -0.3519  1.1586
  171DMF     H6 2540   2.014   1.240   0.543  0.5134 -2.0938  2.5196
  171DMF     H7 2541   1.837   0.973   0.363  0.5568 -0.0408 -0.7401
  172DMF     C1 2542   0.037   2.540   0.714  0.3867  0.5267 -0.2101
  172DMF     N1 2543  -0.095   2.605   0.696  0.0315 -0.3424  0.0089
  172DMF     C2 2544  -0.099   2.748   0.650 -1.1781 -0.1724 -0.4196
  172DMF     C3 2545  -0.208   2.548   0.758 -0.5271  0.2324  0.1688
  172DMF     O1 2546  -0.211   2.439   0.813 -0.1807  0.7198  0.2078
  172DMF     H1 2547   0.033   2.433   0.689  0.7066  0.1806  1.1663
  172DMF     H2 2548   0.077   2.566   0.813 -0.2419  0.6239  0.0178
  172DMF     H3 2549   0.095   2.591   0.636 -0.3491 -0.1395 -1.2032
  172DMF     H4 2550  -0.190   2.793   0.691 -0.2139  0.2179  1.3384
  172DMF     H5 2551  -0.077   2.761   0.543  1.3592  0.0364  0.0934
  172DMF     H6 2552  -0.016   2.791   0.706 -1.6044 -2.0738  1.7348
  172DMF     H7 2553  -0.300   2.607   0.740  1.8330  4.0495 -0.0659
  173DMF     C1 2554   0.669   0.344   2.235 -0.2758  0.1313  0.4427
  173DMF     N1 2555   0.823   0.348   2.239  0.5768 -0.5212  0.3005
  173DMF     C2 2556   0.893   0.229   2.260 -0.1393  0.4862  0.0517
  173DMF     C3 2557   0.890   0.462   2.216 -0.8518 -0.2281 -0.9860
  173DMF     O1 2558   0.832   0.571   2.227 -0.1079 -0.2570 -0.9765
  173DMF     H1 2559   0.629   0.253   2.189 -1.0237  1.7210 -2.1491
  173DMF     H2 2560   0.632   0.433   2.182 -0.1211  0.2982  0.6110
  173DMF     H3 2561   0.625   0.333   2.335 -0.5748  0.7970  0.3870
  173DMF     H4 2562   1.002   0.231   2.271 -0.1001 -2.9174  0.5771
  173DMF     H5 2563   0.865   0.168   2.174 -1.7083 -0.5448  1.2685
  173DMF     H6 2564   0.856   0.176   2.349 -1.0181 -0.4551 -0.8692
  173DMF     H7 2565   0.998   0.459   2.193 -0.6661  2.5934 -0.6782
  174DMF     C1 2566   0.176   1.771   2.621 -0.8228 -0.5455  0.1213
  174DMF     N1 2567   0.216   1.772   2.767  0.2577  0.1375  0.3554
  174DMF     C2 2568   0.346   1.725   2.802  0.7549 -0.1928 -0.0259
  174DMF     C3 2569   0.116   1.806   2.863 -0.9053  0.0283  0.0126
  174DMF     O1 2570   0.002   1.821   2.826 -0.6964  0.2599  0.2102
  174DMF     H1 2571   0.184   1.666   2.591 -0.2082 -0.1678 -1.0940
  174DMF     H2 2572   0.236   1.843   2.564 -1.0096 -0.1215  0.4579
  174DMF     H3 2573   0.071   1.802   2.617 -0.6125  0.0100 -1.1905
  174DMF     H4 2574   0.408   1.759   2.718  0.0178  2.4742  0.4468
  174DMF     H5 2575   0.352   1.616   2.808 -1.0612 -0.2677  0.7140
  174DMF     H6 2576   0.385   1.766   2.896  0.4685 -1.2173  0.5505
  174DMF     H7 2577   0.158   1.821   2.964  2.8861  0.2982 -1.5272
  175DMF     C1 2578   3.235   1.661   3.724  0.1781  0.4014  0.1971
  175DMF     N1 2579   3.206   1.673   3.872 -0.1154  0.1169  0.0329
  175DMF     C2 2580   3.112   1.776   3.923 -0.4570  0.3162 -0.3575
  175DMF     C3 2581   3.262   1.584   3.962 -0.4192 -0.2127 -0.4638
  175DMF     O1 2582   3.353   1.507   3.941  0.1240  0.3199 -0.0340
  175DMF     H1 2583   3.199   1.744   3.663 -1.3237 -0.2709  0.1420
  175DMF     H2 2584   3.185   1.571   3.684 -0.9063  0.7928  0.6668
  175DMF     H3 2585   3.344   1.657   3.711  0.1187 -0.3320 -0.1144
  175DMF     H4 2586   3.057   1.720   4.000  0.7401 -0.8036 -0.2933
  175DMF     H5 2587   3.052   1.820   3.842  0.8045  0.2757 -1.3470
  175DMF     H6 2588   3.171   1.860   3.963  1.6502 -0.0349 -2.5682
  175DMF     H7 2589   3.211   1.585   4.061  2.8103  2.5983  1.2757
  176DMF     C1 2590   2.550   3.217   2.891  0.1333 -0.5781 -0.1993
  176DMF     N1 2591   2.693   3.230   2.925 -0.7268  0.2351  0.1487
  176DMF     C2 2592   2.739   3.352   2.983 -0.1480 -0.1476  0.4442
  176DMF     C3 2593   2.778   3.113   2.908  0.2982 -0.0797  0.7153
  176DMF     O1 2594   2.739   3.012   2.856  0.0616  0.0012 -0.1450
  176DMF     H1 2595   2.498   3.136   2.944  0.3615 -0.9691 -0.5706
  176DMF     H2 2596   2.527   3.202   2.785 -1.4214  0.9471 -0.0900
  176DMF     H3 2597   2.493   3.307   2.915 -2.1391 -1.8807 -0.5336
  176DMF     H4 2598   2.846   3.343   3.005 -0.4018  0.0825  1.7623
  176DMF     H5 2599   2.684   3.376   3.074  2.3402  1.1970  1.6267
  176DMF     H6 2600   2.714   3.433   2.913 -0.1726 -0.9787 -0.5254
  176DMF     H7 2601   2.880   3.133   2.945  0.3448 -0.2583  0.6873
  177DMF     C1 2602   2.149   2.088   2.270 -0.1860 -0.2842  0.3760
  177DMF     N1 2603   2.201   1.952   2.263 -0.1759 -0.0017 -0.3978
  177DMF     C2 2604   2.104   1.850   2.228 -0.6662 -0.0665 -0.5138
  177DMF     C3 2605   2.333   1.929   2.233  0.4717  0.4457  0.2107
  177DMF     O1 2606   2.416   2.019   2.252  0.0049  0.3899 -0.1382
  177DMF     H1 2607   2.195   2.145   2.352  0.5643 -0.2157 -0.0864
  177DMF     H2 2608   2.042   2.080   2.291 -1.0329  2.5295 -2.4484
  177DMF     H3 2609   2.167   2.140   2.175 -0.1773 -1.2526 -0.1596
  177DMF     H4 2610   2.025   1.898   2.169 -1.1196 -0.0705  0.0851
  177DMF     H5 2611   2.055   1.821   2.321  1.6510 -0.1880  0.6907
  177DMF     H6 2612   2.159   1.765   2.185  0.2993  0.6453 -0.6937
  177DMF     H7 2613   2.350   1.830   2.188 -0.7594  0.5629 -0.5190
  178DMF     C1 2614   2.056   1.511   2.670  0.5764 -0.1223 -0.2486
  178DMF     N1 2615   2.091   1.580   2.803  0.3956 -0.7580 -0.1183
  178DMF     C2 2616   2.030   1.525   2.923  0.8854  0.5676 -0.4951
  178DMF     C3 2617   2.144   1.718   2.810 -0.0538 -0.1569 -0.2880
  178DMF     O1 2618   2.192   1.776   2.717 -0.6515  0.4262 -0.0822
  178DMF     H1 2619   2.110   1.417   2.656 -0.1248 -0.4607 -0.7423
  178DMF     H2 2620   2.088   1.577   2.588  1.5392 -0.7028 -0.3370
  178DMF     H3 2621   1.950   1.482   2.668  0.5372  0.0461 -0.7006
  178DMF     H4 2622   2.025   1.415   2.921 -0.2038  0.5096  2.9257
  178DMF     H5 2623   1.933   1.576   2.931  1.6377  1.6665  1.8754
  178DMF     H6 2624   2.082   1.548   3.016 -0.4808  0.8335  0.2208
  178DMF     H7 2625   2.130   1.755   2.913  3.2584 -0.4149  0.3220
  179DMF     C1 2626   2.298   3.184   2.343  0.0861 -0.2289 -0.4869
  179DMF     N1 2627   2.285   3.049   2.273  0.6272 -0.0174 -0.5560
  179DMF     C2 2628   2.151   3.013   2.227  0.1541 -0.4442 -0.5335
  179DMF     C3 2629   2.391   2.982   2.219  0.8006  0.2219  0.0209
  179DMF     O1 2630   2.507   3.010   2.247  0.2289  0.5436 -0.6006
  179DMF     H1 2631   2.217   3.252   2.316  0.1484  0.9173  2.0937
  179DMF     H2 2632   2.397   3.219   2.309 -0.7187  2.0468 -0.6023
  179DMF     H3 2633   2.294   3.148   2.446 -3.9511  0.8334 -0.1995
  179DMF     H4 2634   2.084   2.993   2.311  0.3052  1.0229 -0.0465
  179DMF     H5 2635   2.161   2.928   2.158 -0.2952  0.1179 -1.3018
  179DMF     H6 2636   2.104   3.100   2.180 -0.9478 -1.0451 -0.5573
  179DMF     H7 2637   2.367   2.903   2.146  0.6761 -1.1531  1.5308
  180DMF     C1 2638   0.786   1.647   3.536  0.5998  0.5075  0.0828
  180DMF     N1 2639   0.845   1.619   3.405 -0.4683  0.6458  0.1785
  180DMF     C2 2640   0.850   1.482   3.355  0.1853  0.2707  0.0642
  180DMF     C3 2641   0.904   1.732   3.341  0.0951 -0.1703 -0.9523
  180DMF     O1 2642   0.903   1.844   3.389  0.2942 -0.0332 -0.9437
  180DMF     H1 2643   0.808   1.561   3.601  0.0940  0.1764 -0.1852
  180DMF     H2 2644   0.678   1.663   3.528  0.3847 -1.4262 -1.2130
  180DMF     H3 2645   0.831   1.735   3.583 -1.0426  1.3188  0.1605
  180DMF     H4 2646   0.808   1.416   3.433  2.6330 -0.4052  0.8581
  180DMF     H5 2647   0.955   1.454   3.362 -0.3956 -2.4969 -1.4223
  180DMF     H6 2648   0.809   1.464   3.255 -0.6713 -0.4344  0.5227
  180DMF     H7 2649   0.958   1.704   3.249  0.3259  1.5853 -1.3640
  181DMF     C1 2650   0.526   2.526   2.255 -0.0306  0.2740 -0.2862
  181DMF     N1 2651   0.657   2.584   2.218 -0.2661  0.2203  0.5151
  181DMF     C2 2652   0.779   2.498   2.222 -0.0604 -0.2435 -0.1177
  181DMF     C3 2653   0.669   2.726   2.223  0.0158  0.1868 -0.5353
  181DMF     O1 2654   0.574   2.796   2.237 -0.2932 -0.2489 -0.3264
  181DMF     H1 2655   0.511   2.508   2.362  1.0949 -1.1055 -0.3476
  181DMF     H2 2656   0.518   2.430   2.203  2.2569  0.0070 -0.1790
  181DMF     H3 2657   0.444   2.591   2.222 -1.7008 -2.5044 -1.8864
  181DMF     H4 2658   0.829   2.505   2.319  1.2459  1.3261 -0.8712
  181DMF     H5 2659   0.846   2.541   2.146  0.4578  1.6017  1.3675
  181DMF     H6 2660   0.759   2.391   2.203  1.1740 -0.5850  0.4074
  181DMF     H7 2661   0.773   2.763   2.210 -0.6347  1.8429 -1.2469
  182DMF     C1 2662   2.278   1.282   1.098 -0.3299  0.1841 -0.4156
  182DMF     N1 2663   2.351   1.177   1.021  0.3968 -0.2679  0.6229
  182DMF     C2 2664   2.275   1.083   0.950 -0.5078 -0.4123  0.4544
  182DMF     C3 2665   2.484   1.207   0.978  0.4152  0.6924 -0.0889
  182DMF     O1 2666   2.556   1.294   1.020  0.0716 -0.3798  0.2917
  182DMF     H1 2667   2.175   1.293   1.064  0.1641  3.5160 -1.0821
  182DMF     H2 2668   2.330   1.379   1.089  2.1654 -0.9303  1.4957
  182DMF     H3 2669   2.284   1.261   1.205  2.2910  2.5592 -0.0171
  182DMF     H4 2670   2.329   1.042   0.863 -1.2433  1.7922 -1.0808
  182DMF     H5 2671   2.192   1.140   0.907  0.2343  1.2282  1.1712
  182DMF     H6 2672   2.235   1.003   1.013 -0.8803  0.7273  1.6818
  182DMF     H7 2673   2.506   1.143   0.891 -1.7154  0.5439 -0.5394
  183DMF     C1 2674   0.372   2.474   0.118  0.0285 -0.0831 -0.5558
  183DMF     N1 2675   0.519   2.460   0.139  0.0187 -0.0231 -0.0288
  183DMF     C2 2676   0.588   2.383   0.028 -0.3987  0.8168  0.1752
  183DMF     C3 2677   0.582   2.513   0.247  0.3078 -0.1089  0.0183
  183DMF     O1 2678   0.523   2.576   0.334 -0.4511  0.2036  0.2506
  183DMF     H1 2679   0.328   2.534   0.198  0.0129 -0.4938 -0.2516
  183DMF     H2 2680   0.318   2.379   0.109  0.9044 -0.8671  1.9345
  183DMF     H3 2681   0.355   2.540   0.033  2.6187  0.6283 -0.5573
  183DMF     H4 2682   0.579   2.424  -0.073  2.3833  2.5879  0.5841
  183DMF     H5 2683   0.530   2.290   0.025 -2.0976  1.8693 -0.6256
  183DMF     H6 2684   0.694   2.361   0.047 -0.4371 -0.4317 -0.9930
  183DMF     H7 2685   0.691   2.497   0.248  0.1489 -1.6751  3.8239
  184DMF     C1 2686   1.310   2.637   0.101  0.3472  0.0313 -0.4265
  184DMF     N1 2687   1.352   2.503   0.106  0.0672 -0.1377 -0.7269
  184DMF     C2 2688   1.248   2.406   0.149 -0.0429  0.1706  0.0455
  184DMF     C3 2689   1.488   2.470   0.093  0.1918 -0.3000 -0.3630
  184DMF     O1 2690   1.572   2.560   0.096 -0.7096  0.1051  0.4871
  184DMF     H1 2691   1.258   2.657   0.006 -1.5347 -2.1840  0.1005
  184DMF     H2 2692   1.398   2.701   0.111  0.4362  0.1079 -1.5999
  184DMF     H3 2693   1.239   2.664   0.180  0.7850 -2.9752  1.0584
  184DMF     H4 2694   1.167   2.414   0.076  0.4149  1.7981 -0.3258
  184DMF     H5 2695   1.207   2.410   0.251  1.1109 -0.3521  0.5377
  184DMF     H6 2696   1.289   2.305   0.135 -0.9317 -0.0745 -0.8133
  184DMF     H7 2697   1.512   2.363   0.104  1.3561  0.0949  1.2356
  185DMF     C1 2698   2.507   2.633   2.993  0.4903  0.5930 -0.8661
  185DMF     N1 2699   2.411   2.637   3.104  0.4627  0.4700 -0.2156
  185DMF     C2 2700   2.281   2.697   3.081  0.1048 -0.0803 -0.4062
  185DMF     C3 2701   2.444   2.599   3.239 -0.0798 -0.4406 -0.6663
  185DMF     O1 2702   2.551   2.560   3.278  0.2292 -0.0472 -0.4849
  185DMF     H1 2703   2.569   2.723   3.003  0.4911  0.4025  0.9573
  185DMF     H2 2704   2.463   2.637   2.892  2.2414 -0.6604 -1.7209
  185DMF     H3 2705   2.566   2.541   3.004 -0.4741  0.0992  0.2220
  185DMF     H4 2706   2.203   2.621   3.095 -0.5260  0.5730 -0.2990
  185DMF     H5 2707   2.265   2.734   2.979 -1.6832  0.2384 -0.0275
  185DMF     H6 2708   2.258   2.788   3.138 -1.7956  0.1034 -1.4293
  185DMF     H7 2709   2.359   2.621   3.306  1.2739 -2.1139  1.6669
  186DMF     C1 2710   2.171   2.254   2.812 -0.3656 -0.3541  0.3579
  186DMF     N1 2711   2.115   2.345   2.706  0.3548 -0.1262 -0.4222
  186DMF     C2 2712   2.054   2.279   2.587  0.1108 -0.2090  0.5705
  186DMF     C3 2713   2.126   2.483   2.707  0.7423  0.0102  0.1686
  186DMF     O1 2714   2.163   2.544   2.802 -0.7519 -0.2062 -0.7192
  186DMF     H1 2715   2.249   2.197   2.760 -0.0369  1.8138 -1.6176
  186DMF     H2 2716   2.091   2.193   2.856 -0.1334 -0.4225  0.6882
  186DMF     H3 2717   2.207   2.311   2.899  0.1129 -1.2004  0.7262
  186DMF     H4 2718   1.977   2.215   2.631  2.1478 -1.1271  2.9323
  186DMF     H5 2719   2.127   2.207   2.546  0.1285 -1.2833  2.4316
  186DMF     H6 2720   2.020   2.351   2.511  0.9910  0.8119  1.1267
  186DMF     H7 2721   2.090   2.534   2.615 -2.4972 -2.0183  0.2382
  187DMF     C1 2722   2.244   2.772   2.552 -0.9636  0.5227 -1.0294
  187DMF     N1 2723   2.282   2.881   2.645  0.0275  0.1671  0.1578
  187DMF     C2 2724   2.388   2.864   2.754 -0.0790 -0.6244 -0.4558
  187DMF     C3 2725   2.198   2.996   2.643 -0.1109 -0.9260 -0.2487
  187DMF     O1 2726   2.110   3.014   2.562  0.0118 -0.1133  0.0834
  187DMF     H1 2727   2.138   2.743   2.562 -0.4498 -2.2290 -2.8361
  187DMF     H2 2728   2.306   2.682   2.562 -1.2051  0.4489 -0.1418
  187DMF     H3 2729   2.255   2.819   2.453  3.0628  0.4591 -0.6702
  187DMF     H4 2730   2.467   2.939   2.743 -0.1094 -0.4953  0.2206
  187DMF     H5 2731   2.446   2.773   2.736  0.9661  0.2178 -1.4044
  187DMF     H6 2732   2.343   2.877   2.853  0.9675  1.2964 -0.2183
  187DMF     H7 2733   2.221   3.066   2.726 -0.1879 -3.0856  1.6548
  188DMF     C1 2734   2.094   0.360   2.946 -0.1997 -0.1098  0.3327
  188DMF     N1 2735   2.122   0.491   2.879  0.7850 -0.1378 -0.1477
  188DMF     C2 2736   2.003   0.577   2.878 -0.0416 -0.0744 -0.9371
  188DMF     C3 2737   2.247   0.530   2.834 -0.6935  0.6618 -0.2653
  188DMF     O1 2738   2.353   0.473   2.857 -0.1649 -0.2879  0.0391
  188DMF     H1 2739   2.026   0.375   3.031  0.3452 -0.1555  0.7753
  188DMF     H2 2740   2.183   0.305   2.979 -0.1143  0.0232  0.3218
  188DMF     H3 2741   2.059   0.285   2.874 -1.1711  0.1231  0.5534
  188DMF     H4 2742   1.989   0.634   2.970 -2.8294 -0.5323 -1.0287
  188DMF     H5 2743   1.917   0.508   2.870  0.9045 -1.5956  1.5216
  188DMF     H6 2744   2.000   0.647   2.794 -0.3223  0.8396 -0.1704
  188DMF     H7 2745   2.249   0.620   2.770 -1.6582  0.7913 -0.1277
  189DMF     C1 2746   2.710   1.580   2.865  0.4588 -0.0067 -0.2914
  189DMF     N1 2747   2.589   1.641   2.808 -0.0250 -0.2164 -0.0232
  189DMF     C2 2748   2.572   1.785   2.812  0.1719 -0.2783 -0.3392
  189DMF     C3 2749   2.493   1.558   2.762 -0.9155 -0.3911  0.5792
  189DMF     O1 2750   2.504   1.439   2.757 -0.0460  0.5502 -0.4211
  189DMF     H1 2751   2.761   1.515   2.793 -1.7203 -2.5761  0.3985
  189DMF     H2 2752   2.689   1.520   2.955 -0.6474  0.7263 -0.0484
  189DMF     H3 2753   2.782   1.661   2.880 -0.4280  1.0551 -1.7150
  189DMF     H4 2754   2.644   1.821   2.887 -0.7993  2.0729 -0.4797
  189DMF     H5 2755   2.471   1.820   2.833  0.1691 -0.2119 -0.4617
  189DMF     H6 2756   2.609   1.822   2.716 -0.5491  0.0676 -0.4870
  189DMF     H7 2757   2.408   1.616   2.721  1.2818  1.0223 -2.1093
  190DMF     C1 2758   1.290   1.022   2.829 -0.4251 -0.3996  0.6839
  190DMF     N1 2759   1.219   1.031   2.698 -0.4310 -0.3020 -0.3604
  190DMF     C2 2760   1.255   0.927   2.596  0.2563  0.8388  0.2274
  190DMF     C3 2761   1.122   1.129   2.665 -0.8065 -0.1756 -0.4753
  190DMF     O1 2762   1.093   1.224   2.736 -0.3418  0.3138 -0.3538
  190DMF     H1 2763   1.321   1.119   2.869  1.3670 -0.4375 -0.5899
  190DMF     H2 2764   1.376   0.956   2.816 -3.1263 -3.6258 -1.9831
  190DMF     H3 2765   1.222   0.987   2.908  0.5490  2.1753  2.7141
  190DMF     H4 2766   1.283   0.989   2.510 -0.1648  0.1957 -0.3750
  190DMF     H5 2767   1.172   0.859   2.571 -0.0654  1.4690 -0.4109
  190DMF     H6 2768   1.334   0.856   2.627 -0.0398  0.6801  0.6127
  190DMF     H7 2769   1.074   1.113   2.566  0.1701 -2.1101 -0.6444
  191DMF     C1 2770   3.391   1.723   2.234 -0.1679  0.0322  0.1369
  191DMF     N1 2771   3.280   1.626   2.241 -0.5725  0.4190 -0.9667
  191DMF     C2 2772   3.144   1.670   2.255 -0.4254  0.1569  0.2177
  191DMF     C3 2773   3.304   1.487   2.242  0.3027  0.2853  0.7795
  191DMF     O1 2774   3.416   1.440   2.253  0.1302 -0.4756 -0.3627
  191DMF     H1 2775   3.480   1.695   2.176 -0.9838 -0.6058 -0.8128
  191DMF     H2 2776   3.430   1.735   2.336 -0.0383 -0.4866  0.1529
  191DMF     H3 2777   3.356   1.817   2.192  1.9920  0.5139 -0.6662
  191DMF     H4 2778   3.078   1.646   2.170  0.0007 -1.3096  0.2991
  191DMF     H5 2779   3.132   1.779   2.267  0.1243  0.2468 -0.0326
  191DMF     H6 2780   3.103   1.622   2.345 -0.0032 -1.2405 -0.3265
  191DMF     H7 2781   3.217   1.424   2.215  0.7961 -0.1905  0.2874
  192DMF     C1 2782   2.778   0.429   0.271  0.3756  0.1594 -0.0600
  192DMF     N1 2783   2.863   0.374   0.382  0.2364 -0.5262  0.3856
  192DMF     C2 2784   2.895   0.225   0.383 -0.1503  0.8204 -0.0723
  192DMF     C3 2785   2.917   0.460   0.477 -0.3293 -0.4129  0.4565
  192DMF     O1 2786   2.886   0.583   0.481  0.2904 -0.4316 -0.3722
  192DMF     H1 2787   2.827   0.399   0.179  0.0738  1.2124 -0.5773
  192DMF     H2 2788   2.778   0.539   0.268  1.1005  0.1296 -0.9996
  192DMF     H3 2789   2.677   0.386   0.279  0.9775 -1.5072 -1.3741
  192DMF     H4 2790   2.964   0.212   0.467  0.6472  1.1669 -0.6738
  192DMF     H5 2791   2.939   0.201   0.286 -2.6346  0.4051 -1.1235
  192DMF     H6 2792   2.805   0.162   0.389  0.3902  0.1038  0.6865
  192DMF     H7 2793   2.983   0.411   0.551 -0.9643 -0.1588  1.2080
  193DMF     C1 2794   3.056   0.684   2.259 -0.5783  1.0040  0.5304
  193DMF     N1 2795   3.071   0.536   2.262  0.6192 -0.1941  0.0091
  193DMF     C2 2796   3.204   0.469   2.258  0.7519 -0.8850  0.4813
  193DMF     C3 2797   2.954   0.464   2.257  0.6182 -0.2806 -0.1252
  193DMF     O1 2798   2.842   0.515   2.235 -0.1155  0.0212  0.3503
  193DMF     H1 2799   3.001   0.721   2.347 -2.6698  0.7958 -0.6629
  193DMF     H2 2800   3.011   0.717   2.165  2.3405  2.2101 -0.5065
  193DMF     H3 2801   3.152   0.736   2.274  1.1225 -1.5811 -1.0358
  193DMF     H4 2802   3.287   0.541   2.248  0.2144 -0.1087  1.5718
  193DMF     H5 2803   3.216   0.394   2.178  2.4630  0.5133 -0.6190
  193DMF     H6 2804   3.218   0.417   2.354  0.2444  0.2048  1.1503
  193DMF     H7 2805   2.973   0.355   2.265 -0.0828 -0.4232 -0.2835
  194DMF     C1 2806   1.415   0.125   2.879 -0.6822  0.4281 -0.6494
  194DMF     N1 2807   1.392   0.018   2.982 -0.6432  0.1480  0.3826
  194DMF     C2 2808   1.323   0.055   3.099  0.3230 -0.5151  0.6347
  194DMF     C3 2809   1.406  -0.116   2.945 -0.4754 -0.2930 -0.4668
  194DMF     O1 2810   1.460  -0.155   2.843  0.2878 -0.5400 -0.2924
  194DMF     H1 2811   1.454   0.212   2.933  0.8249  0.3796 -1.6504
  194DMF     H2 2812   1.326   0.151   2.821 -1.0175  0.3009 -0.1978
  194DMF     H3 2813   1.493   0.089   2.811 -0.5567  1.1760 -0.9047
  194DMF     H4 2814   1.366  -0.004   3.180  1.3091 -1.7835 -0.7989
  194DMF     H5 2815   1.220   0.016   3.099  0.4029 -0.9032 -2.9696
  194DMF     H6 2816   1.331   0.165   3.105  3.7016 -0.7183  0.4232
  194DMF     H7 2817   1.346  -0.177   3.015 -0.9529 -0.0913 -0.6997
  195DMF     C1 2818   1.195   3.148   2.341 -0.5696  0.8703 -0.1464
  195DMF     N1 2819   1.241   3.015   2.289 -0.5469  0.2445  0.0660
  195DMF     C2 2820   1.380   2.967   2.303 -0.5012 -0.0504 -0.1149
  195DMF     C3 2821   1.150   2.927   2.230 -0.5316  0.1395 -0.6393
  195DMF     O1 2822   1.033   2.955   2.205  0.2953 -0.2193 -0.6473
  195DMF     H1 2823   1.172   3.143   2.448 -1.0800  0.8047 -0.2585
  195DMF     H2 2824   1.122   3.195   2.274  0.5740 -0.6848 -2.5420
  195DMF     H3 2825   1.282   3.214   2.348 -1.3666  1.7812  1.6181
  195DMF     H4 2826   1.445   3.016   2.230 -0.7305  1.5540  0.7282
  195DMF     H5 2827   1.389   2.859   2.289 -0.1922 -0.1609  0.9198
  195DMF     H6 2828   1.424   2.992   2.400  0.1909 -1.6332 -0.0045
  195DMF     H7 2829   1.194   2.827   2.217  0.8702  0.4465  1.4911
  196DMF     C1 2830   3.316   1.817   3.407  0.5230  0.7465 -0.0093
  196DMF     N1 2831   3.294   1.933   3.323 -0.2645 -0.0483 -0.2628
  196DMF     C2 2832   3.165   1.995   3.323  0.2170  0.5064  0.2193
  196DMF     C3 2833   3.401   2.012   3.277  0.3171 -0.6448 -0.8531
  196DMF     O1 2834   3.513   1.966   3.273 -0.4324 -0.0342 -0.0984
  196DMF     H1 2835   3.218   1.771   3.423  0.8366 -0.2164 -0.7969
  196DMF     H2 2836   3.352   1.871   3.495 -3.8523  1.1317  1.6399
  196DMF     H3 2837   3.382   1.747   3.353 -2.1324 -1.8855 -0.0076
  196DMF     H4 2838   3.147   2.048   3.228  1.7981  1.0967  0.2421
  196DMF     H5 2839   3.156   2.060   3.410 -1.5450 -1.2691  1.4169
  196DMF     H6 2840   3.090   1.917   3.343  0.7093  0.4421  1.9036
  196DMF     H7 2841   3.372   2.115   3.248 -0.4924 -0.6554 -0.1168
  197DMF     C1 2842   0.917   3.249   3.385 -0.6243  0.4297  0.7037
  197DMF     N1 2843   0.985   3.118   3.340  0.2520 -0.4740 -0.0094
  197DMF     C2 2844   1.054   3.116   3.221 -0.4111 -0.4836 -0.2119
  197DMF     C3 2845   0.975   2.995   3.413 -0.6165  0.6642 -0.3169
  197DMF     O1 2846   0.908   2.988   3.511  0.3074 -0.1132  0.3811
  197DMF     H1 2847   0.937   3.256   3.493  0.2949  0.2241  0.5529
  197DMF     H2 2848   0.809   3.249   3.366 -0.5534 -1.4569  0.2489
  197DMF     H3 2849   0.955   3.343   3.342 -1.3028  0.7413  0.7678
  197DMF     H4 2850   1.001   3.171   3.142  0.1104 -1.3334 -1.1581
  197DMF     H5 2851   1.064   3.014   3.182  0.3547  0.0427 -1.4383
  197DMF     H6 2852   1.156   3.154   3.236 -0.7619 -0.4482  2.2644
  197DMF     H7 2853   1.025   2.910   3.363 -1.1116 -0.9959  1.9269
  198DMF     C1 2854   2.644   2.125   2.708 -0.1533  0.1314 -0.1036
  198DMF     N1 2855   2.543   2.203   2.641 -0.3680 -0.2412  0.5145
  198DMF     C2 2856   2.430   2.130   2.581 -0.0714 -0.0543 -0.4088
  198DMF     C3 2857   2.541   2.346   2.651 -0.7609 -0.2521 -0.5106
  198DMF     O1 2858   2.636   2.407   2.704 -0.7966 -0.1151  0.0941
  198DMF     H1 2859   2.641   2.017   2.687  1.6573  0.2082 -0.8663
  198DMF     H2 2860   2.638   2.145   2.816  0.4447  0.3839 -0.1160
  198DMF     H3 2861   2.741   2.160   2.670 -0.1415  0.1339 -0.0715
  198DMF     H4 2862   2.405   2.043   2.642  0.9744 -1.1510 -1.4988
  198DMF     H5 2863   2.468   2.090   2.486 -0.2508  0.2553 -0.6144
  198DMF     H6 2864   2.345   2.191   2.548  0.2049  0.1277 -0.7919
  198DMF     H7 2865   2.450   2.396   2.613  0.7075 -0.2081 -4.2222
  199DMF     C1 2866   0.870   3.253   2.265  0.1200  0.3766 -0.0532
  199DMF     N1 2867   0.729   3.230   2.255 -0.9269 -0.2490 -0.0484
  199DMF     C2 2868   0.676   3.088   2.262 -0.1111  0.1831  0.7374
  199DMF     C3 2869   0.632   3.329   2.266  0.2046 -0.5157  0.3243
  199DMF     O1 2870   0.653   3.446   2.282  0.1395  0.6714  0.8275
  199DMF     H1 2871   0.908   3.213   2.360  1.2820 -1.8165 -1.4155
  199DMF     H2 2872   0.897   3.360   2.261  0.8690  0.1692 -0.7241
  199DMF     H3 2873   0.925   3.195   2.191  1.1805 -3.0835  3.2849
  199DMF     H4 2874   0.615   3.057   2.177 -0.3230 -0.1717  1.0201
  199DMF     H5 2875   0.618   3.071   2.353 -0.2119 -1.4450  0.3849
  199DMF     H6 2876   0.767   3.026   2.261  0.0986  0.4935 -0.6246
  199DMF     H7 2877   0.528   3.296   2.249 -0.8661  2.3902  0.8551
  200DMF     C1 2878   0.799   0.792   2.712  0.4478 -0.6608 -0.2174
  200DMF     N1 2879   0.844   0.742   2.585  0.5568  0.2196 -0.8439
  200DMF     C2 2880   0.815   0.600   2.550  0.1443  0.0515  0.4855
  200DMF     C3 2881   0.912   0.819   2.501  0.1575 -0.6064 -0.4164
  200DMF     O1 2882   0.933   0.937   2.515  0.0810  0.0647 -0.5419
  200DMF     H1 2883   0.726   0.872   2.697 -0.8303 -1.6074  0.9331
  200DMF     H2 2884   0.884   0.837   2.766 -0.5156  0.5180  0.3377
  200DMF     H3 2885   0.756   0.717   2.779 -0.3049  0.5736  0.6910
  200DMF     H4 2886   0.843   0.531   2.630 -0.4086  0.7471  1.2873
  200DMF     H5 2887   0.881   0.582   2.465  0.9598  0.4663  1.0266
  200DMF     H6 2888   0.708   0.582   2.535  0.4347 -1.2178 -0.1434
  200DMF     H7 2889   0.961   0.756   2.425 -0.7796 -3.2750  1.1068
  201DMF     C1 2890   1.385   2.104   3.118  0.6903  0.3333 -0.2107
  201DMF     N1 2891   1.323   1.966   3.091 -0.6655  0.0816 -0.2890
  201DMF     C2 2892   1.241   1.896   3.198  0.2909  0.0220 -0.1782
  201DMF     C3 2893   1.368   1.895   2.983  0.4092  0.4083 -0.0020
  201DMF     O1 2894   1.447   1.933   2.904  0.0253 -0.2237 -0.0769
  201DMF     H1 2895   1.309   2.183   3.124 -0.6581 -0.9169 -0.2192
  201DMF     H2 2896   1.450   2.136   3.036  0.0988 -0.6090 -1.0636
  201DMF     H3 2897   1.441   2.102   3.212 -0.4079 -0.5949  0.4374
  201DMF     H4 2898   1.240   1.955   3.290 -0.9121 -0.5902  0.2097
  201DMF     H5 2899   1.264   1.790   3.213 -1.4672 -0.1675  1.4267
  201DMF     H6 2900   1.137   1.909   3.166 -0.1735  0.2434  1.3701
  201DMF     H7 2901   1.299   1.809   2.967  0.4403  0.5398 -0.8886
  202DMF     C1 2902   2.030   0.330   0.748 -0.1496 -0.6490  0.1782
  202DMF     N1 2903   1.972   0.415   0.645  0.0786 -0.2254  0.0088
  202DMF     C2 2904   1.833   0.470   0.667 -0.0934 -0.8452 -0.0766
  202DMF     C3 2905   2.054   0.460   0.537 -0.1063 -0.3934  0.6714
  202DMF     O1 2906   2.169   0.424   0.536 -0.3028  0.7123  0.8604
  202DMF     H1 2907   1.981   0.343   0.846  0.6484 -0.5058  0.5582
  202DMF     H2 2908   2.139   0.342   0.752  0.0664 -2.4450  0.0520
  202DMF     H3 2909   2.009   0.229   0.711  1.3577 -0.8605 -0.1150
  202DMF     H4 2910   1.839   0.579   0.670 -0.9717 -0.7042 -2.1861
  202DMF     H5 2911   1.786   0.427   0.756  0.0858 -1.1076 -0.1062
  202DMF     H6 2912   1.765   0.443   0.585 -1.2791 -0.9568  0.9436
  202DMF     H7 2913   2.012   0.538   0.471 -0.8832 -1.8407 -0.5833
  203DMF     C1 2914   1.531   1.492   2.793  0.0253  0.6007 -0.0252
  203DMF     N1 2915   1.418   1.473   2.692 -0.2706 -0.5878 -0.0865
  203DMF     C2 2916   1.434   1.352   2.601  0.1235 -0.3854 -0.0401
  203DMF     C3 2917   1.307   1.556   2.680  0.0009 -1.0678  0.4644
  203DMF     O1 2918   1.297   1.650   2.757  0.1063  0.3173  0.4295
  203DMF     H1 2919   1.526   1.597   2.824 -3.1979  0.8303 -1.1796
  203DMF     H2 2920   1.630   1.463   2.755  0.6742  1.7728  0.7053
  203DMF     H3 2921   1.519   1.428   2.881 -1.0337  1.6724  0.6147
  203DMF     H4 2922   1.404   1.378   2.498  0.8239 -0.8333 -0.3636
  203DMF     H5 2923   1.386   1.270   2.655 -0.6888  1.0241  1.4223
  203DMF     H6 2924   1.540   1.326   2.593  0.1754  0.0546 -0.8700
  203DMF     H7 2925   1.244   1.541   2.591 -0.4615  0.6422  0.4905
  204DMF     C1 2926   1.999   0.027   2.302 -0.2260  0.1063 -0.2772
  204DMF     N1 2927   2.098   0.129   2.260 -0.1108  0.0423 -0.1075
  204DMF     C2 2928   2.235   0.076   2.243 -0.1425  0.0383  0.7091
  204DMF     C3 2929   2.062   0.269   2.242  0.3765  0.0600 -0.1861
  204DMF     O1 2930   1.947   0.303   2.266  0.6523 -0.2822  0.1434
  204DMF     H1 2931   1.900   0.074   2.308  0.3179  1.0894  1.2995
  204DMF     H2 2932   2.028  -0.004   2.404  2.1779 -0.6033 -1.1408
  204DMF     H3 2933   2.002  -0.058   2.233  2.8889  0.3541 -0.5200
  204DMF     H4 2934   2.276   0.031   2.334  0.6647 -3.2617 -1.1909
  204DMF     H5 2935   2.293   0.164   2.211 -0.9341 -1.1847 -4.4636
  204DMF     H6 2936   2.235  -0.002   2.166 -1.0165  1.1696 -0.4703
  204DMF     H7 2937   2.140   0.338   2.208  1.5738 -1.3144 -0.2734
  205DMF     C1 2938   0.203   1.194   3.498  0.9869 -0.2371  0.6807
  205DMF     N1 2939   0.176   1.281   3.617  0.0329 -0.3184  0.5301
  205DMF     C2 2940   0.255   1.250   3.736 -0.3729 -0.4755  0.2589
  205DMF     C3 2941   0.066   1.370   3.612 -0.3686 -0.4993  0.2884
  205DMF     O1 2942  -0.017   1.377   3.527  0.1461 -0.3966 -0.5480
  205DMF     H1 2943   0.281   1.235   3.433  0.8331 -3.0466 -1.3983
  205DMF     H2 2944   0.110   1.175   3.441  1.9010 -3.7112  0.2166
  205DMF     H3 2945   0.235   1.094   3.530  0.0023 -1.9273 -3.1857
  205DMF     H4 2946   0.350   1.305   3.735  0.3113 -1.6521  0.3613
  205DMF     H5 2947   0.277   1.143   3.745  0.1256 -0.5401 -1.5094
  205DMF     H6 2948   0.217   1.291   3.830  1.8071  2.8076 -0.2022
  205DMF     H7 2949   0.065   1.445   3.694 -0.3755  2.3293 -2.2034
  206DMF     C1 2950   0.939   0.354   0.262  0.0912 -0.0540  0.5033
  206DMF     N1 2951   0.830   0.316   0.165 -0.0876 -0.2451  0.5638
  206DMF     C2 2952   0.690   0.343   0.212  0.3217  0.4008 -0.0362
  206DMF     C3 2953   0.859   0.261   0.041 -0.1524  0.4687  0.2701
  206DMF     O1 2954   0.974   0.230   0.009 -0.5433 -0.0564 -0.3452
  206DMF     H1 2955   1.027   0.289   0.255  1.2319  1.2338  2.4252
  206DMF     H2 2956   0.914   0.353   0.368  1.5825  0.7482  0.8834
  206DMF     H3 2957   0.967   0.457   0.235  0.2906 -0.1015  0.5294
  206DMF     H4 2958   0.656   0.261   0.277 -0.1258  0.0631 -0.6907
  206DMF     H5 2959   0.616   0.344   0.131  0.7465 -0.3612 -0.4337
  206DMF     H6 2960   0.680   0.435   0.271 -0.0107  0.9690 -0.9838
  206DMF     H7 2961   0.772   0.240  -0.024  1.2725  0.3118 -1.6306
  207DMF     C1 2962   0.443   1.008   2.589  0.2804 -0.3002 -0.3051
  207DMF     N1 2963   0.322   0.935   2.620 -0.0961  0.0245  0.3597
  207DMF     C2 2964   0.245   0.980   2.731 -0.0462 -0.5060  0.0702
  207DMF     C3 2965   0.288   0.818   2.563 -0.1919  0.3202 -0.3949
  207DMF     O1 2966   0.362   0.773   2.476 -0.1862  0.7784  0.2113
  207DMF     H1 2967   0.494   0.966   2.501  0.8336 -0.3913  0.0580
  207DMF     H2 2968   0.513   1.016   2.673  0.3602 -2.5896 -0.1225
  207DMF     H3 2969   0.426   1.113   2.563  2.8549  0.4995  1.1378
  207DMF     H4 2970   0.302   0.961   2.822  0.1555 -2.5960 -0.4723
  207DMF     H5 2971   0.148   0.929   2.729 -0.8354  0.9289  0.8328
  207DMF     H6 2972   0.234   1.089   2.726  0.4268 -0.4838 -0.4828
  207DMF     H7 2973   0.210   0.768   2.623 -0.1815  0.5732 -0.1667
  208DMF     C1 2974   2.033   0.704   1.231  0.4810  0.1926  0.1324
  208DMF     N1 2975   2.107   0.614   1.137  0.0641 -0.1669  0.4160
  208DMF     C2 2976   2.250   0.629   1.127  0.3897 -0.1544  0.1404
  208DMF     C3 2977   2.054   0.486   1.098 -0.2332  0.5957 -0.1021
  208DMF     O1 2978   1.947   0.445   1.142 -0.2964 -0.4944 -0.2007
  208DMF     H1 2979   1.964   0.649   1.297  1.3962 -0.5966  0.4413
  208DMF     H2 2980   1.963   0.768   1.177  1.7848  0.3203 -1.4517
  208DMF     H3 2981   2.099   0.766   1.292 -0.9149  2.2351 -0.4109
  208DMF     H4 2982   2.278   0.703   1.052 -3.6161  2.3789  1.0082
  208DMF     H5 2983   2.287   0.529   1.098 -0.5622 -1.1475  2.2523
  208DMF     H6 2984   2.300   0.656   1.221 -0.7504  1.4319  0.3177
  208DMF     H7 2985   2.122   0.430   1.032 -2.1835 -2.5258  0.4648
  209DMF     C1 2986   0.601   0.102   2.567 -0.5152 -0.4845  0.6321
  209DMF     N1 2987   0.469   0.047   2.612 -0.5171  0.9433  0.7381
  209DMF     C2 2988   0.354   0.028   2.526  0.3663 -0.1289 -0.2715
  209DMF     C3 2989   0.441   0.041   2.752  0.2691 -0.3108 -0.3532
  209DMF     O1 2990   0.525   0.058   2.834 -0.3453  0.1132  0.6265
  209DMF     H1 2991   0.654   0.143   2.654  0.9532  1.9177 -1.3422
  209DMF     H2 2992   0.585   0.191   2.506 -0.4064 -0.7468  0.2212
  209DMF     H3 2993   0.666   0.029   2.517 -0.5272 -0.0468 -0.0236
  209DMF     H4 2994   0.287  -0.048   2.567 -1.4105  0.5422 -1.8299
  209DMF     H5 2995   0.394  -0.010   2.431 -0.3901 -2.9979  0.5098
  209DMF     H6 2996   0.297   0.121   2.512 -0.8497 -1.1369 -2.3125
  209DMF     H7 2997   0.337   0.014   2.776 -0.0918  1.9555  0.8109
  210DMF     C1 2998   1.843   2.861   2.736 -0.1543  0.0016 -0.5386
  210DMF     N1 2999   1.735   2.943   2.798  0.1116 -0.3139 -0.4952
  210DMF     C2 3000   1.770   3.005   2.925 -0.1664 -0.2280  0.6478
  210DMF     C3 3001   1.609   2.950   2.745  1.0416 -0.6896 -0.3654
  210DMF     O1 3002   1.589   2.913   2.631  1.0178 -0.5275  1.2303
  210DMF     H1 3003   1.927   2.925   2.706  0.9218 -0.6504  1.0390
  210DMF     H2 3004   1.807   2.803   2.650 -0.2037 -2.1065  0.8632
  210DMF     H3 3005   1.880   2.791   2.811 -2.6162  0.9929  1.7129
  210DMF     H4 3006   1.712   3.095   2.950 -0.4361 -0.4084  0.6780
  210DMF     H5 3007   1.868   3.050   2.907 -0.4943 -0.7169 -2.5830
  210DMF     H6 3008   1.750   2.932   3.005 -1.2900  0.8720  1.3786
  210DMF     H7 3009   1.535   2.991   2.816  2.7474 -0.0404  1.0886
  211DMF     C1 3010   1.730   2.187   2.416 -0.3460  0.5865  0.4748
  211DMF     N1 3011   1.716   2.304   2.334  0.2099 -0.2126  0.3630
  211DMF     C2 3012   1.581   2.359   2.321  0.3649  0.1355 -0.5262
  211DMF     C3 3013   1.825   2.364   2.270  0.1230 -0.3699 -0.0372
  211DMF     O1 3014   1.939   2.314   2.260  0.2172  0.0465  0.0510
  211DMF     H1 3015   1.729   2.101   2.348  1.4176  1.4976 -0.7436
  211DMF     H2 3016   1.655   2.177   2.495 -0.0279  0.2177  0.7325
  211DMF     H3 3017   1.830   2.189   2.461  0.0805 -0.0224 -0.4319
  211DMF     H4 3018   1.574   2.448   2.385 -0.1361 -0.9338  0.9334
  211DMF     H5 3019   1.512   2.280   2.351  0.2478  0.7520  0.8366
  211DMF     H6 3020   1.547   2.393   2.222 -3.1008  1.0540  0.9127
  211DMF     H7 3021   1.801   2.464   2.229  0.3474  0.2958  1.4157
  212DMF     C1 3022   3.246   0.267   2.742 -0.0105 -0.6202 -0.0447
  212DMF     N1 3023   3.121   0.189   2.748 -0.7607 -0.2717  0.3494
  212DMF     C2 3024   3.071   0.132   2.872 -0.0155  0.3230  0.3880
  212DMF     C3 3025   3.033   0.203   2.636  0.8699 -0.8436 -0.7478
  212DMF     O1 3026   3.053   0.267   2.535  0.0489 -0.6583  0.2612
  212DMF     H1 3027   3.328   0.219   2.798  1.2921  1.1721 -0.3768
  212DMF     H2 3028   3.227   0.364   2.790 -1.1852 -1.0839  0.4409
  212DMF     H3 3029   3.281   0.279   2.639  0.4755 -0.1211  0.1708
  212DMF     H4 3030   3.113   0.031   2.884 -1.5414 -0.8322 -3.2760
  212DMF     H5 3031   2.963   0.116   2.858 -0.1851  2.0426 -0.4480
  212DMF     H6 3032   3.098   0.185   2.964  1.7919 -1.3252  0.8273
  212DMF     H7 3033   2.935   0.154   2.653  1.1910 -0.9469  0.8617
  213DMF     C1 3034   1.243   1.424   3.053 -0.4685  0.0387  0.0872
  213DMF     N1 3035   1.306   1.411   3.180  0.8261  0.1377 -0.0343
  213DMF     C2 3036   1.402   1.299   3.194  0.8007 -0.1754 -0.2866
  213DMF     C3 3037   1.266   1.482   3.295 -0.2493  0.6126 -0.5478
  213DMF     O1 3038   1.182   1.570   3.290  0.4655  0.0760 -0.2037
  213DMF     H1 3039   1.144   1.376   3.043 -0.3774  0.1855 -1.5809
  213DMF     H2 3040   1.303   1.369   2.979 -0.3685 -0.2906  0.4102
  213DMF     H3 3041   1.231   1.529   3.025  0.0126  0.2223  0.5729
  213DMF     H4 3042   1.462   1.296   3.286 -0.5400 -3.3098  0.5532
  213DMF     H5 3043   1.484   1.305   3.121  0.9256 -0.2827 -0.1556
  213DMF     H6 3044   1.367   1.195   3.182  1.9088 -0.3779 -2.0881
  213DMF     H7 3045   1.319   1.462   3.390 -2.1477  3.2913  1.1574
  214DMF     C1 3046   0.562   2.126   0.496  0.1378 -0.1023 -0.0294
  214DMF     N1 3047   0.562   2.090   0.360  0.5338 -0.3609 -0.5813
  214DMF     C2 3048   0.430   2.097   0.290 -0.1128 -0.0574 -0.2085
  214DMF     C3 3049   0.681   2.087   0.290  0.0925 -0.3837  0.1294
  214DMF     O1 3050   0.795   2.089   0.339 -0.4164 -0.4588  0.2565
  214DMF     H1 3051   0.599   2.229   0.510 -1.2490  0.2767  0.9938
  214DMF     H2 3052   0.622   2.060   0.560  0.3344  0.3240  0.2373
  214DMF     H3 3053   0.460   2.137   0.535  0.4527 -0.3292  0.8889
  214DMF     H4 3054   0.434   2.175   0.212 -2.4930 -2.0554 -2.4009
  214DMF     H5 3055   0.344   2.121   0.354 -2.1738 -3.4273 -1.5777
  214DMF     H6 3056   0.409   2.000   0.245  0.2265 -0.7122  1.0335
  214DMF     H7 3057   0.664   2.074   0.182  1.3532 -2.5156  0.1614
  215DMF     C1 3058   1.523   2.295   3.386 -0.6200  0.6024 -0.1031
  215DMF     N1 3059   1.582   2.202   3.479  0.0426  0.3161 -0.2485
  215DMF     C2 3060   1.702   2.133   3.440 -0.4563 -0.2709  0.0823
  215DMF     C3 3061   1.520   2.196   3.606  0.0973 -0.2453  0.0215
  215DMF     O1 3062   1.424   2.263   3.632 -0.3463 -0.2555 -0.5876
  215DMF     H1 3063   1.579   2.325   3.296 -0.2825  2.1878  0.6231
  215DMF     H2 3064   1.511   2.393   3.432 -0.0964 -0.4623  2.3736
  215DMF     H3 3065   1.426   2.256   3.352  0.7808 -0.2524 -3.3820
  215DMF     H4 3066   1.789   2.162   3.500  0.2754 -1.7336 -0.2409
  215DMF     H5 3067   1.729   2.150   3.335  1.3734  1.3645  0.8007
  215DMF     H6 3068   1.683   2.026   3.460 -1.0791  0.0929  1.4612
  215DMF     H7 3069   1.563   2.126   3.679 -1.5377  0.7573  1.9931
  216DMF     C1 3070   0.789   1.235   2.661 -0.1309 -0.0256 -0.1833
  216DMF     N1 3071   0.655   1.269   2.719 -0.2825  0.1171  0.5414
  216DMF     C2 3072   0.617   1.230   2.854  0.0301 -0.2689 -0.6581
  216DMF     C3 3073   0.561   1.344   2.639 -0.1599  0.0114 -0.3704
  216DMF     O1 3074   0.584   1.379   2.522 -0.5253 -0.2055  0.1520
  216DMF     H1 3075   0.788   1.222   2.552 -2.5076 -1.6910  0.0026
  216DMF     H2 3076   0.827   1.143   2.706 -1.2560  0.9987  3.0255
  216DMF     H3 3077   0.862   1.315   2.678  0.5366 -0.6498 -0.1070
  216DMF     H4 3078   0.658   1.306   2.921  1.0934 -1.2479 -0.1804
  216DMF     H5 3079   0.648   1.125   2.863  0.5671 -0.0197  0.5546
  216DMF     H6 3080   0.508   1.241   2.855  0.2055  1.6395 -1.5931
  216DMF     H7 3081   0.460   1.358   2.682  0.3066 -0.5876  0.9610
  217DMF     C1 3082   2.978   2.555   2.652  0.5723 -0.6958  0.1091
  217DMF     N1 3083   2.903   2.669   2.714  0.4628 -0.3803  0.2327
  217DMF     C2 3084   2.764   2.680   2.694 -0.0045 -0.2580 -0.6785
  217DMF     C3 3085   2.974   2.762   2.794  0.4174 -0.1030  0.5541
  217DMF     O1 3086   3.089   2.741   2.830 -0.3130  0.5155 -0.4722
  217DMF     H1 3087   2.970   2.575   2.544 -0.1832  0.3871  0.3504
  217DMF     H2 3088   2.935   2.455   2.668 -1.1839  0.1340  0.7007
  217DMF     H3 3089   3.080   2.544   2.690  1.0186  0.8732 -0.5728
  217DMF     H4 3090   2.741   2.787   2.689  1.9609  0.3961  2.6405
  217DMF     H5 3091   2.713   2.630   2.777 -0.3339  1.0238 -0.1134
  217DMF     H6 3092   2.741   2.621   2.604  0.3834 -0.9407 -0.3366
  217DMF     H7 3093   2.925   2.855   2.828  2.8702  1.3296  0.3228
  218DMF     C1 3094   3.143   1.852   2.658  0.0370 -0.0594  0.1750
  218DMF     N1 3095   2.997   1.834   2.624  0.4504 -0.2300 -0.3140
  218DMF     C2 3096   2.940   1.703   2.602 -0.3248 -0.5124  0.1838
  218DMF     C3 3097   2.922   1.950   2.603 -0.6078 -0.1138 -0.0759
  218DMF     O1 3098   2.968   2.059   2.617  0.0043  0.3320  0.2089
  218DMF     H1 3099   3.182   1.779   2.730 -1.6077 -0.0097  1.1468
  218DMF     H2 3100   3.175   1.947   2.702 -0.0764 -0.6006  1.4404
  218DMF     H3 3101   3.196   1.847   2.562  1.5199  1.2722  0.9091
  218DMF     H4 3102   2.859   1.687   2.675 -0.2531  1.2570  0.6630
  218DMF     H5 3103   3.017   1.626   2.612  0.5244  0.0356 -1.7978
  218DMF     H6 3104   2.901   1.698   2.499  0.2924 -2.1207  0.0166
  218DMF     H7 3105   2.814   1.933   2.592 -0.3596 -2.9487  1.3076
  219DMF     C1 3106   0.954   0.080   0.937 -0.0060 -0.1332  0.8665
  219DMF     N1 3107   1.002   0.203   0.874 -0.0357 -0.0405 -0.2502
  219DMF     C2 3108   0.901   0.294   0.833  1.1534 -0.2283 -0.5407
  219DMF     C3 3109   1.132   0.248   0.898 -0.2184 -0.4813 -0.9243
  219DMF     O1 3110   1.216   0.179   0.946 -0.3430  0.3835  0.2477
  219DMF     H1 3111   0.988   0.075   1.042  2.9530 -2.2069 -0.1340
  219DMF     H2 3112   1.004  -0.002   0.884  0.0139  0.2618  0.2676
  219DMF     H3 3113   0.846   0.073   0.922 -0.0296 -0.2409  1.0780
  219DMF     H4 3114   0.880   0.368   0.911  1.1250 -0.0565 -0.7103
  219DMF     H5 3115   0.812   0.230   0.826  1.6085 -1.0293  0.8778
  219DMF     H6 3116   0.931   0.337   0.737  3.5686 -0.5174  0.0458
  219DMF     H7 3117   1.145   0.356   0.875 -0.3176  0.0634  1.4378
  220DMF     C1 3118   0.414   1.653   2.226 -0.4078  0.6607  0.0144
  220DMF     N1 3119   0.463   1.521   2.232  0.3223 -0.6319 -0.2785
  220DMF     C2 3120   0.361   1.419   2.265  0.3975  0.5917 -0.5492
  220DMF     C3 3121   0.593   1.491   2.248 -0.4746 -0.3754 -0.5214
  220DMF     O1 3122   0.683   1.578   2.232 -0.1960 -0.2230 -0.1416
  220DMF     H1 3123   0.432   1.702   2.323  1.8310 -0.8069  0.3811
  220DMF     H2 3124   0.309   1.663   2.195 -0.5251  1.4843  0.6583
  220DMF     H3 3125   0.475   1.711   2.156 -1.0080  1.5716  0.2373
  220DMF     H4 3126   0.337   1.390   2.162  0.0530 -2.0451  0.2283
  220DMF     H5 3127   0.278   1.470   2.314  0.3512 -0.9197  1.0135
  220DMF     H6 3128   0.399   1.337   2.328 -1.5763  0.8904  1.0584
  220DMF     H7 3129   0.616   1.383   2.263 -1.2858 -0.2174  1.9835
  221DMF     C1 3130   2.804   0.981   2.751  0.0048  0.2942 -0.2873
  221DMF     N1 3131   2.775   1.088   2.649  0.0320  0.6072 -0.1803
  221DMF     C2 3132   2.639   1.144   2.630  0.2460 -0.1062  0.2044
  221DMF     C3 3133   2.880   1.141   2.569 -0.0925 -0.8224 -0.1394
  221DMF     O1 3134   2.992   1.100   2.581  0.1455  0.4194 -0.0765
  221DMF     H1 3135   2.708   0.971   2.804  0.8892 -0.6055  1.1396
  221DMF     H2 3136   2.893   1.013   2.806  0.2525 -0.6529 -0.1376
  221DMF     H3 3137   2.823   0.890   2.693  1.0154 -0.1730  0.7631
  221DMF     H4 3138   2.555   1.085   2.669 -3.2558  3.2611 -1.8866
  221DMF     H5 3139   2.623   1.164   2.524 -0.9930 -0.5557  0.2961
  221DMF     H6 3140   2.635   1.241   2.682  0.7348  0.3294 -0.5640
  221DMF     H7 3141   2.848   1.217   2.496  0.4529  0.2338  0.6983
  222DMF     C1 3142   1.160   2.387   2.265 -0.1276  0.1392  0.4500
  222DMF     N1 3143   1.156   2.416   2.407 -0.0515  0.2406  0.6775
  222DMF     C2 3144   1.053   2.349   2.483 -0.1621 -0.0390  0.2397
  222DMF     C3 3145   1.233   2.519   2.463 -0.4222  0.5534  0.1010
  222DMF     O1 3146   1.324   2.571   2.401 -0.1014  0.3119 -0.1228
  222DMF     H1 3147   1.152   2.488   2.222 -1.8108 -0.8834 -1.7575
  222DMF     H2 3148   1.072   2.328   2.234  0.3626 -1.4357  2.0012
  222DMF     H3 3149   1.253   2.334   2.245  0.2977  0.1543  2.3082
  222DMF     H4 3150   1.047   2.244   2.453 -0.6050 -0.5923  2.1514
  222DMF     H5 3151   0.959   2.400   2.458  1.4622  2.5354 -0.7565
  222DMF     H6 3152   1.077   2.348   2.590  0.3405 -3.6050  0.1438
  222DMF     H7 3153   1.202   2.547   2.566 -0.5078  1.5185 -0.1788
  223DMF     C1 3154   2.949   1.084   3.693  0.2392 -0.1062  0.0159
  223DMF     N1 3155   2.952   1.202   3.610  0.0691  0.4295  0.8262
  223DMF     C2 3156   3.000   1.330   3.662 -0.5861  0.2311 -1.1001
  223DMF     C3 3157   2.888   1.200   3.484  0.1027 -0.1615 -0.9057
  223DMF     O1 3158   2.852   1.095   3.437  0.1100 -0.5998 -0.6078
  223DMF     H1 3159   3.047   1.055   3.734  0.5325  1.7048  0.6568
  223DMF     H2 3160   2.913   0.998   3.636 -2.1445  0.4066  0.6850
  223DMF     H3 3161   2.876   1.110   3.770 -1.3252  0.9616 -1.7953
  223DMF     H4 3162   2.966   1.356   3.763  3.2683  0.5326  0.2108
  223DMF     H5 3163   2.975   1.411   3.593  1.7499  0.9837 -1.0854
  223DMF     H6 3164   3.109   1.325   3.659 -0.5396  0.0199  0.5528
  223DMF     H7 3165   2.881   1.303   3.445  1.1948  0.0668 -0.5161
  224DMF     C1 3166   0.549   3.200   0.296  0.5163 -0.0841  0.2582
  224DMF     N1 3167   0.589   3.272   0.172  0.1459  0.0060  0.1147
  224DMF     C2 3168   0.689   3.390   0.186  0.2086  0.6488 -0.1308
  224DMF     C3 3169   0.552   3.239   0.044 -0.1851  0.9985  0.3882
  224DMF     O1 3170   0.463   3.156   0.022 -0.5747 -0.0574  0.0416
  224DMF     H1 3171   0.466   3.250   0.349 -0.8647  0.1553 -2.0519
  224DMF     H2 3172   0.635   3.195   0.364  2.5492  0.0700 -2.2403
  224DMF     H3 3173   0.517   3.100   0.266  1.4068  0.5519 -2.9694
  224DMF     H4 3174   0.754   3.388   0.098 -3.3287  1.9961 -2.8975
  224DMF     H5 3175   0.745   3.376   0.279 -3.7769 -0.2728  2.2358
  224DMF     H6 3176   0.625   3.479   0.193  0.0707  0.6479 -1.2980
  224DMF     H7 3177   0.599   3.297  -0.038  0.0947 -1.1280 -0.9827
  225DMF     C1 3178   3.326   0.993   0.135  0.0298  0.3040  0.2868
  225DMF     N1 3179   3.278   0.942   0.004 -0.1771  0.1088  0.4452
  225DMF     C2 3180   3.341   0.986  -0.117  0.3643  0.1324 -0.7666
  225DMF     C3 3181   3.195   0.825   0.001 -0.1850  0.0006 -0.3360
  225DMF     O1 3182   3.143   0.782   0.098 -0.0630 -0.4436  0.0889
  225DMF     H1 3183   3.432   0.972   0.153 -0.6534 -2.9163  0.8475
  225DMF     H2 3184   3.278   0.949   0.223  1.0106  0.2432  0.8046
  225DMF     H3 3185   3.312   1.102   0.133  3.1334  0.7561  0.0804
  225DMF     H4 3186   3.359   0.896  -0.177  0.4655 -0.5646  0.3007
  225DMF     H5 3187   3.437   1.036  -0.096  1.9844 -3.5886  0.9814
  225DMF     H6 3188   3.271   1.046  -0.176  1.7002  2.5610  0.0273
  225DMF     H7 3189   3.172   0.781  -0.097  0.7491 -1.9367  0.2985
  226DMF     C1 3190   0.365   0.417   0.304  0.1297  0.1252  0.3547
  226DMF     N1 3191   0.335   0.425   0.442  0.3764 -0.2748 -0.0458
  226DMF     C2 3192   0.390   0.544   0.515 -0.0305 -0.2733  0.3172
  226DMF     C3 3193   0.243   0.343   0.509 -0.6610  0.0680 -0.2730
  226DMF     O1 3194   0.180   0.250   0.459 -0.0345 -0.5067  0.4439
  226DMF     H1 3195   0.425   0.497   0.259 -0.4860 -1.1723 -2.9452
  226DMF     H2 3196   0.277   0.385   0.246  1.9357 -2.4842 -1.0595
  226DMF     H3 3197   0.440   0.337   0.297 -1.2914 -1.0498 -2.1850
  226DMF     H4 3198   0.397   0.515   0.621 -1.7914  1.4016  0.9275
  226DMF     H5 3199   0.324   0.631   0.505 -1.1524 -0.8311  2.5147
  226DMF     H6 3200   0.490   0.578   0.484 -0.2796 -0.6710 -0.9308
  226DMF     H7 3201   0.236   0.372   0.615  1.5831 -0.0880 -0.0569
  227DMF     C1 3202   0.102   2.782   3.670  0.0014 -0.2472  0.7583
  227DMF     N1 3203   0.031   2.886   3.599  0.8057 -0.2235  0.2109
  227DMF     C2 3204   0.077   3.022   3.621 -0.1439 -0.0840  0.5071
  227DMF     C3 3205  -0.079   2.865   3.515  0.3134 -0.4715  1.1265
  227DMF     O1 3206  -0.113   2.752   3.477  0.4453 -0.5977  0.1278
  227DMF     H1 3207   0.169   2.831   3.743 -1.8381  1.3529  1.4188
  227DMF     H2 3208   0.166   2.732   3.596 -2.2739 -0.6915 -0.9380
  227DMF     H3 3209   0.039   2.713   3.726 -0.2980 -1.3820 -0.9557
  227DMF     H4 3210   0.042   3.053   3.721  0.3213  1.2302  0.2741
  227DMF     H5 3211   0.041   3.096   3.548  1.6268  0.3073 -0.0061
  227DMF     H6 3212   0.186   3.031   3.631 -0.1320 -0.8502  1.1558
  227DMF     H7 3213  -0.124   2.956   3.472  0.7972 -0.8225 -0.1407
  228DMF     C1 3214   1.954   2.715   2.267 -0.2727 -0.1687  0.1216
  228DMF     N1 3215   1.814   2.758   2.307 -0.5353 -0.3988  0.0881
  228DMF     C2 3216   1.745   2.860   2.235 -0.5297 -0.4470  0.2987
  228DMF     C3 3217   1.745   2.686   2.405 -0.4871 -0.4645 -0.9013
  228DMF     O1 3218   1.799   2.599   2.471 -0.3367 -0.5124 -0.1070
  228DMF     H1 3219   1.944   2.621   2.213  1.6588 -1.6587  2.2525
  228DMF     H2 3220   2.032   2.710   2.345 -1.6328 -1.3757  1.4311
  228DMF     H3 3221   2.012   2.776   2.197 -0.7316 -0.8493 -0.8603
  228DMF     H4 3222   1.661   2.816   2.179  0.4989 -1.4836 -0.4560
  228DMF     H5 3223   1.807   2.914   2.163 -0.4693  0.3523  0.9397
  228DMF     H6 3224   1.720   2.930   2.315  2.8937 -0.3346  1.3486
  228DMF     H7 3225   1.639   2.714   2.423 -0.8573 -3.4188  1.9737
  229DMF     C1 3226   0.607   0.910   3.010  0.4325  0.2715 -0.1273
  229DMF     N1 3227   0.572   0.768   3.009 -0.7889  0.1705 -0.8880
  229DMF     C2 3228   0.503   0.717   2.885 -0.2312  0.2631 -0.2163
  229DMF     C3 3229   0.590   0.681   3.116 -0.4077 -0.2399 -0.8743
  229DMF     O1 3230   0.642   0.724   3.223 -0.0892 -0.5705  0.1448
  229DMF     H1 3231   0.536   0.964   2.946 -1.6954 -0.3304  1.6965
  229DMF     H2 3232   0.712   0.931   2.982  0.8511  0.7075  1.7161
  229DMF     H3 3233   0.580   0.954   3.106  3.1693  1.8045 -0.0031
  229DMF     H4 3234   0.575   0.649   2.839 -0.6935  0.8623 -1.8455
  229DMF     H5 3235   0.482   0.805   2.823 -0.0481  0.2348 -0.3165
  229DMF     H6 3236   0.413   0.668   2.924 -0.1717  1.7490  1.9008
  229DMF     H7 3237   0.566   0.574   3.111  2.3930 -0.9640  0.1021
  230DMF     C1 3238   0.181   3.264   2.261  0.0551 -0.2563 -0.3995
  230DMF     N1 3239   0.155   3.121   2.244  0.2892 -0.0012  0.0286
  230DMF     C2 3240   0.264   3.018   2.255  0.4590 -0.1524  0.6399
  230DMF     C3 3241   0.019   3.077   2.205  0.0883 -0.8395 -0.5043
  230DMF     O1 3242  -0.075   3.152   2.196  0.0088 -0.0161  0.2917
  230DMF     H1 3243   0.139   3.289   2.359 -2.2530 -3.5059 -0.4483
  230DMF     H2 3244   0.120   3.328   2.196  0.0579 -0.9832 -1.1225
  230DMF     H3 3245   0.287   3.287   2.251  0.0097  0.4559  0.6833
  230DMF     H4 3246   0.340   3.017   2.176  1.0326  0.2407  1.1760
  230DMF     H5 3247   0.224   2.916   2.256 -0.9235  0.3810  1.7731
  230DMF     H6 3248   0.318   3.035   2.349  2.4531  1.4218 -0.7309
  230DMF     H7 3249   0.021   2.969   2.184  0.6204 -0.6364 -1.5453
  231DMF     C1 3250   0.452   2.101   2.215  0.1945 -0.8326  0.2741
  231DMF     N1 3251   0.305   2.093   2.236  0.2433  0.4358 -0.4618
  231DMF     C2 3252   0.249   1.962   2.271 -0.1068 -1.5186  0.1392
  231DMF     C3 3253   0.232   2.210   2.256 -0.4265 -0.0895 -0.2099
  231DMF     O1 3254   0.276   2.321   2.240  0.0162  0.0491 -0.6249
  231DMF     H1 3255   0.468   2.193   2.156 -1.3276 -0.1317  0.9470
  231DMF     H2 3256   0.477   2.019   2.147  3.5013  2.0050 -2.1222
  231DMF     H3 3257   0.504   2.094   2.311 -0.8501  1.6868  1.0717
  231DMF     H4 3258   0.231   1.961   2.379  0.3234 -0.4188  0.2316
  231DMF     H5 3259   0.309   1.878   2.234  0.0877 -1.3199 -0.0023
  231DMF     H6 3260   0.150   1.962   2.224  0.0783  1.4771 -0.3314
  231DMF     H7 3261   0.125   2.187   2.277  0.1799 -2.1910  0.6901
  232DMF     C1 3262   2.291   1.343   3.270  0.0172  0.3202 -0.2046
  232DMF     N1 3263   2.383   1.394   3.172  0.3695 -0.5916 -0.2407
  232DMF     C2 3264   2.424   1.535   3.170 -0.0126 -0.2173  0.6561
  232DMF     C3 3265   2.446   1.298   3.089 -0.7287  0.3337 -0.4402
  232DMF     O1 3266   2.434   1.174   3.097  0.2464 -0.1324 -0.2100
  232DMF     H1 3267   2.212   1.288   3.218  0.8422 -0.7662 -0.3080
  232DMF     H2 3268   2.236   1.429   3.311 -1.1649 -0.1465 -0.7820
  232DMF     H3 3269   2.346   1.284   3.344 -0.0359 -2.4318 -2.2908
  232DMF     H4 3270   2.350   1.601   3.216 -0.0459  0.2985 -0.1283
  232DMF     H5 3271   2.446   1.580   3.072 -1.5362  0.3923  0.5769
  232DMF     H6 3272   2.521   1.539   3.222  1.0487  0.5406 -1.3272
  232DMF     H7 3273   2.509   1.340   3.009 -0.8834  1.2722 -0.0703
  233DMF     C1 3274   1.692   0.534   3.013 -0.8486  0.5559 -0.7627
  233DMF     N1 3275   1.676   0.640   2.914 -0.1291 -0.5360 -0.4088
  233DMF     C2 3276   1.572   0.602   2.819 -0.2145  0.5122 -0.0882
  233DMF     C3 3277   1.704   0.774   2.937 -0.2489 -0.0281  0.0190
  233DMF     O1 3278   1.754   0.813   3.039  0.1536  0.2442 -0.2473
  233DMF     H1 3279   1.685   0.582   3.112 -1.9623 -0.5390 -0.3007
  233DMF     H2 3280   1.793   0.494   3.024 -0.8976  0.5052 -0.4894
  233DMF     H3 3281   1.615   0.460   2.992  0.0363 -0.5092 -0.2895
  233DMF     H4 3282   1.591   0.501   2.783 -0.5400  0.2066  0.5821
  233DMF     H5 3283   1.582   0.666   2.730 -0.3006  1.2586  0.4332
  233DMF     H6 3284   1.470   0.600   2.860 -0.4662  3.1157 -0.4783
  233DMF     H7 3285   1.675   0.841   2.854  0.1830  0.5725  0.3536
  234DMF     C1 3286   2.255   0.679   3.204  0.1251  0.5010 -0.0127
  234DMF     N1 3287   2.343   0.797   3.183 -0.4291 -0.1471 -0.2621
  234DMF     C2 3288   2.419   0.811   3.057  0.2456  0.3002  0.1947
  234DMF     C3 3289   2.332   0.899   3.271 -0.6999  0.1031  0.3494
  234DMF     O1 3290   2.258   0.903   3.365 -0.2709  0.2368 -0.3821
  234DMF     H1 3291   2.209   0.666   3.302 -0.1531 -1.5728 -0.4082
  234DMF     H2 3292   2.307   0.583   3.193 -2.2681 -0.9129  0.8275
  234DMF     H3 3293   2.174   0.676   3.130  0.6455 -1.5299 -0.5174
  234DMF     H4 3294   2.485   0.899   3.062 -0.5284  0.9743 -1.1230
  234DMF     H5 3295   2.349   0.836   2.977  0.5321 -0.5988 -0.3424
  234DMF     H6 3296   2.474   0.720   3.028 -1.3387 -0.5767 -0.0991
  234DMF     H7 3297   2.415   0.967   3.244  0.3173 -2.1841 -2.4790
  235DMF     C1 3298   0.628   3.165   3.148  0.6517 -0.1873  0.2910
  235DMF     N1 3299   0.651   3.288   3.069 -0.1501  0.2748 -0.7799
  235DMF     C2 3300   0.654   3.416   3.142 -0.3608 -0.3398  0.0528
  235DMF     C3 3301   0.679   3.278   2.929 -0.1374  0.3018 -0.0341
  235DMF     O1 3302   0.669   3.170   2.868 -0.0023  0.1052  0.6970
  235DMF     H1 3303   0.623   3.188   3.255 -0.8638 -0.3789  0.2699
  235DMF     H2 3304   0.705   3.093   3.119  0.4367 -0.5880  0.7153
  235DMF     H3 3305   0.533   3.119   3.117  0.8316  1.5369 -3.1270
  235DMF     H4 3306   0.575   3.425   3.218  0.0989  3.7240  0.2009
  235DMF     H5 3307   0.638   3.497   3.069 -1.0963  1.0340  1.6809
  235DMF     H6 3308   0.752   3.436   3.187  0.2199  0.3799 -1.4873
  235DMF     H7 3309   0.714   3.372   2.883  1.2822 -0.1241  0.1188
  236DMF     C1 3310   2.114   1.313   0.132  0.4387  0.9614  0.3218
  236DMF     N1 3311   2.059   1.191   0.077  0.5485 -0.0094 -0.1792
  236DMF     C2 3312   1.916   1.172   0.068 -0.1410 -0.1856 -0.3145
  236DMF     C3 3313   2.150   1.084   0.045  0.5139 -0.4136 -0.0926
  236DMF     O1 3314   2.266   1.107   0.038  0.8281  0.2302  0.7035
  236DMF     H1 3315   2.071   1.397   0.074  0.3920  0.3840 -0.4918
  236DMF     H2 3316   2.219   1.333   0.109  0.7665  1.8481  2.4629
  236DMF     H3 3317   2.087   1.314   0.238 -2.7316  0.6497 -0.4163
  236DMF     H4 3318   1.878   1.072   0.094  1.9142 -0.9422 -0.1182
  236DMF     H5 3319   1.881   1.178  -0.036 -0.3170 -3.3153 -0.4914
  236DMF     H6 3320   1.869   1.249   0.130  0.3481 -0.0100 -0.1597
  236DMF     H7 3321   2.099   0.989   0.019  1.2287 -0.6055 -0.8108
  237DMF     C1 3322   3.324   2.482   0.070 -1.0781 -0.0831  0.0880
  237DMF     N1 3323   3.222   2.571   0.004  0.3456 -0.2193  0.1201
  237DMF     C2 3324   3.147   2.518  -0.104 -0.1535  0.6227 -0.2932
  237DMF     C3 3325   3.201   2.709   0.039 -0.4149  0.2244  0.5756
  237DMF     O1 3326   3.278   2.768   0.114  0.2054 -0.2417 -0.3638
  237DMF     H1 3327   3.416   2.502   0.013 -2.3134  0.7418 -1.6793
  237DMF     H2 3328   3.290   2.378   0.072  0.3882 -0.6476 -2.1980
  237DMF     H3 3329   3.355   2.517   0.169 -0.5493 -0.8064  0.1854
  237DMF     H4 3330   3.192   2.426  -0.145  1.5238  1.1327  0.3417
  237DMF     H5 3331   3.130   2.594  -0.180  1.1253  1.5383  0.3124
  237DMF     H6 3332   3.051   2.480  -0.066  1.3704 -2.6383  0.5216
  237DMF     H7 3333   3.114   2.752  -0.014 -0.3255  0.5291  0.6752
  238DMF     C1 3334   1.127   0.747   2.920  0.2934  0.7336 -0.6117
  238DMF     N1 3335   1.089   0.654   3.028  0.5653  0.1051 -0.2798
  238DMF     C2 3336   0.950   0.652   3.077  0.0533 -0.6350  0.5684
  238DMF     C3 3337   1.168   0.539   3.054  0.5000 -0.2100  0.3380
  238DMF     O1 3338   1.266   0.501   2.997 -0.0650  0.1693  0.2071
  238DMF     H1 3339   1.237   0.756   2.917  0.3903 -0.2865 -0.4418
  238DMF     H2 3340   1.085   0.845   2.944  0.7904  0.8594 -0.2346
  238DMF     H3 3341   1.089   0.709   2.824  1.5264 -2.2248  0.0167
  238DMF     H4 3342   0.899   0.746   3.051  0.3544 -0.6633 -0.1279
  238DMF     H5 3343   0.944   0.646   3.186  0.0752  1.7481  0.7357
  238DMF     H6 3344   0.887   0.577   3.028  0.3324 -0.7690  0.4121
  238DMF     H7 3345   1.116   0.481   3.131 -2.1854 -0.4213 -1.5726
  239DMF     C1 3346   2.916   1.013   2.259 -0.4545 -0.2563  0.2414
  239DMF     N1 3347   2.884   1.155   2.225  0.5914  0.0385 -0.1798
  239DMF     C2 3348   3.002   1.246   2.219 -0.9755  0.5481 -0.1768
  239DMF     C3 3349   2.757   1.208   2.234 -0.3027  0.5581 -0.3288
  239DMF     O1 3350   2.659   1.138   2.264  0.4489  0.4296  0.6669
  239DMF     H1 3351   2.917   0.988   2.365 -0.8530 -0.5505  0.1761
  239DMF     H2 3352   3.008   0.976   2.211 -0.2346 -2.0566  2.0143
  239DMF     H3 3353   2.827   0.954   2.233 -0.1721 -1.5924  2.2368
  239DMF     H4 3354   2.983   1.341   2.169  1.2157 -0.3706 -2.8793
  239DMF     H5 3355   3.075   1.197   2.154 -0.0925  1.8573 -0.2006
  239DMF     H6 3356   3.047   1.262   2.318  0.6676  0.3597 -0.8653
  239DMF     H7 3357   2.754   1.316   2.215 -0.3799  0.2101 -2.3493
  240DMF     C1 3358   2.582   1.378   3.450  0.1664  0.1506 -0.4060
  240DMF     N1 3359   2.564   1.282   3.563  0.0896  0.1846 -0.1091
  240DMF     C2 3360   2.519   1.146   3.530 -0.4821 -0.3190 -0.4406
  240DMF     C3 3361   2.628   1.308   3.685  1.0361  0.1535 -0.4212
  240DMF     O1 3362   2.687   1.412   3.710 -0.2639 -0.1684 -0.8104
  240DMF     H1 3363   2.548   1.475   3.490 -0.5560 -0.3521  0.2132
  240DMF     H2 3364   2.531   1.357   3.355  1.5286 -0.9237 -0.9127
  240DMF     H3 3365   2.688   1.391   3.423  0.0622  1.7868 -0.0771
  240DMF     H4 3366   2.527   1.077   3.614  2.0207  0.5781  0.1148
  240DMF     H5 3367   2.589   1.113   3.452 -1.6725  0.8530 -2.0561
  240DMF     H6 3368   2.413   1.137   3.502 -0.5503 -0.3922 -0.1614
  240DMF     H7 3369   2.622   1.222   3.754 -1.2570  0.3014 -0.4098
  241DMF     C1 3370   1.768   0.252   2.627  0.1362 -0.0507  0.4282
  241DMF     N1 3371   1.879   0.345   2.587  0.2511 -0.1121  0.0574
  241DMF     C2 3372   1.835   0.479   2.525 -0.2240 -0.0992 -0.3756
  241DMF     C3 3373   2.011   0.294   2.571 -0.1920  0.2074  0.1777
  241DMF     O1 3374   2.041   0.180   2.603 -0.0391  0.0743 -0.1160
  241DMF     H1 3375   1.804   0.152   2.656 -0.5558 -0.2325  0.6695
  241DMF     H2 3376   1.697   0.246   2.544  0.1088  0.2699  0.4293
  241DMF     H3 3377   1.728   0.315   2.708  0.3641  1.8148 -0.8999
  241DMF     H4 3378   1.729   0.497   2.544 -0.0914 -0.1804  0.4431
  241DMF     H5 3379   1.847   0.477   2.416  0.8721 -1.3405 -0.2539
  241DMF     H6 3380   1.887   0.565   2.567 -1.2121  0.9380 -1.2399
  241DMF     H7 3381   2.078   0.365   2.519  2.6654 -1.8998  0.8089
  242DMF     C1 3382   2.943   2.241   3.478  0.9000 -0.2319  0.5330
  242DMF     N1 3383   2.926   2.176   3.604 -0.5689 -0.1790  0.4249
  242DMF     C2 3384   2.787   2.194   3.669 -0.1177  0.4041 -0.0654
  242DMF     C3 3385   3.032   2.126   3.684 -0.7171 -0.4518 -0.0829
  242DMF     O1 3386   3.146   2.113   3.645 -0.1665 -0.0501 -0.2219
  242DMF     H1 3387   2.851   2.298   3.457  0.7401 -0.2891  1.0677
  242DMF     H2 3388   2.975   2.182   3.391  0.4942 -0.1704  0.3385
  242DMF     H3 3389   3.021   2.313   3.504 -1.4136  2.0173  1.5082
  242DMF     H4 3390   2.745   2.295   3.666 -1.9604 -0.2180  3.1298
  242DMF     H5 3391   2.801   2.165   3.774  3.7474  0.1296 -0.5510
  242DMF     H6 3392   2.719   2.116   3.632 -0.4866  1.3188 -1.3584
  242DMF     H7 3393   2.987   2.097   3.780 -1.0084 -0.8650 -0.3438
  243DMF     C1 3394   0.935   1.750   2.625  0.3155  0.3109  0.1475
  243DMF     N1 3395   0.807   1.809   2.605  0.3169  0.0631  0.2635
  243DMF     C2 3396   0.688   1.724   2.578  0.1342  0.7714 -0.4938
  243DMF     C3 3397   0.805   1.943   2.567  1.0945 -0.2030 -0.2245
  243DMF     O1 3398   0.897   2.023   2.564 -0.0389  0.2174 -0.3115
  243DMF     H1 3399   0.955   1.699   2.530 -0.0899  1.5475 -0.6119
  243DMF     H2 3400   0.912   1.667   2.693 -1.9987  0.3999 -0.4871
  243DMF     H3 3401   1.022   1.815   2.643  0.5333  1.0281 -3.1198
  243DMF     H4 3402   0.622   1.731   2.666 -0.7937  1.4143 -1.2429
  243DMF     H5 3403   0.719   1.618   2.579 -1.4700  0.1908  4.3292
  243DMF     H6 3404   0.633   1.737   2.484 -1.0044  0.7833  0.1646
  243DMF     H7 3405   0.707   1.965   2.521  0.3978 -0.9645  0.8754
  244DMF     C1 3406   3.292   0.126   0.897  0.3200 -0.4350 -0.2019
  244DMF     N1 3407   3.358   0.130   0.758  0.1556  0.2790 -0.9703
  244DMF     C2 3408   3.487   0.069   0.749 -0.7102  0.0831  0.2037
  244DMF     C3 3409   3.291   0.202   0.653  0.4811 -0.3738 -0.2446
  244DMF     O1 3410   3.181   0.252   0.675 -0.2431 -0.1036 -0.2033
  244DMF     H1 3411   3.360   0.084   0.972 -0.4910 -3.3270 -1.0195
  244DMF     H2 3412   3.212   0.051   0.889  1.3658 -1.3727 -2.7259
  244DMF     H3 3413   3.258   0.227   0.923  0.1123 -0.4613 -0.3733
  244DMF     H4 3414   3.474  -0.040   0.743  0.6028  0.0174 -1.7871
  244DMF     H5 3415   3.554   0.099   0.830 -1.0362  0.6782  0.2494
  244DMF     H6 3416   3.537   0.105   0.658 -1.2444 -0.6072 -0.3691
  244DMF     H7 3417   3.341   0.185   0.555  0.8492 -2.7256  0.3218
  245DMF     C1 3418   0.888   0.272   3.422 -0.5926 -0.0397 -0.1416
  245DMF     N1 3419   0.830   0.393   3.383 -0.2176  0.0143  0.1695
  245DMF     C2 3420   0.799   0.404   3.241  0.4441  0.2118  1.0621
  245DMF     C3 3421   0.794   0.486   3.480 -0.6892 -0.1847 -0.3082
  245DMF     O1 3422   0.816   0.475   3.598 -0.0356  0.2670 -0.1616
  245DMF     H1 3423   0.993   0.266   3.389  0.0523  2.1962  1.4408
  245DMF     H2 3424   0.838   0.189   3.372  2.7505 -1.5983 -1.0660
  245DMF     H3 3425   0.889   0.247   3.529  2.7387  0.3494 -0.0156
  245DMF     H4 3426   0.746   0.497   3.216  1.2825  0.1927 -0.8661
  245DMF     H5 3427   0.737   0.315   3.225  1.7660 -0.4544 -0.4004
  245DMF     H6 3428   0.889   0.381   3.183  0.3429 -2.2125  1.7923
  245DMF     H7 3429   0.765   0.580   3.430  0.4240  0.2666 -0.1236
  246DMF     C1 3430   0.080   1.290   2.565  0.5744  0.0882 -0.0093
  246DMF     N1 3431   0.044   1.404   2.646  1.1000  0.2726 -0.5557
  246DMF     C2 3432  -0.087   1.470   2.626 -1.2892  0.0391 -0.0084
  246DMF     C3 3433   0.132   1.449   2.750 -0.1387  0.4402  0.3407
  246DMF     O1 3434   0.234   1.389   2.777 -0.5197 -0.6535 -0.7364
  246DMF     H1 3435   0.184   1.300   2.531  0.1936  1.6919 -0.7349
  246DMF     H2 3436   0.020   1.290   2.473  1.6800 -0.3786 -0.7367
  246DMF     H3 3437   0.076   1.193   2.617 -0.8862  0.0078 -0.2406
  246DMF     H4 3438  -0.128   1.486   2.727  0.1093 -1.5373  0.8483
  246DMF     H5 3439  -0.160   1.408   2.574 -0.4233 -1.0529  0.0529
  246DMF     H6 3440  -0.078   1.563   2.569 -4.8223  1.0081  0.9175
  246DMF     H7 3441   0.089   1.536   2.803  0.2823 -0.1679  1.6788
  247DMF     C1 3442   2.818   2.815   2.253 -0.8390 -0.2620  0.5827
  247DMF     N1 3443   2.964   2.814   2.243 -0.0554  0.1426 -0.0667
  247DMF     C2 3444   3.043   2.936   2.254 -0.3279 -0.0065 -0.1933
  247DMF     C3 3445   3.033   2.699   2.210 -0.5932  0.3730 -0.2540
  247DMF     O1 3446   2.976   2.591   2.202 -0.0048  0.3927 -0.9737
  247DMF     H1 3447   2.794   2.917   2.284 -0.7628  0.9441 -3.1093
  247DMF     H2 3448   2.779   2.745   2.328 -0.2019 -1.5096 -0.2278
  247DMF     H3 3449   2.758   2.795   2.163 -2.2485 -0.6206  1.5858
  247DMF     H4 3450   3.028   2.988   2.349 -0.8051 -0.1247 -0.1984
  247DMF     H5 3451   3.001   3.002   2.178 -1.5992 -0.1776  0.3316
  247DMF     H6 3452   3.148   2.911   2.239 -0.1404  1.4614 -1.3178
  247DMF     H7 3453   3.141   2.707   2.184 -0.7642  0.8924 -0.8210
  248DMF     C1 3454   2.636   0.286   3.065 -0.3796 -0.0206  0.3724
  248DMF     N1 3455   2.671   0.371   3.184 -0.4539 -0.1242 -0.2894
  248DMF     C2 3456   2.658   0.519   3.153 -0.1303 -0.1024  1.0279
  248DMF     C3 3457   2.726   0.320   3.308 -0.8161 -0.5671  0.3434
  248DMF     O1 3458   2.750   0.204   3.328 -0.1945  0.2487 -0.4622
  248DMF     H1 3459   2.529   0.262   3.064 -0.3646 -0.0885 -1.3625
  248DMF     H2 3460   2.686   0.189   3.073  0.5610  0.3569 -0.7304
  248DMF     H3 3461   2.661   0.331   2.968  2.2776 -0.2534  0.9127
  248DMF     H4 3462   2.575   0.536   3.084 -0.1272 -1.1609  0.7580
  248DMF     H5 3463   2.754   0.560   3.119 -2.2841  2.8848 -1.7846
  248DMF     H6 3464   2.632   0.564   3.250 -0.3958 -0.0669  0.9412
  248DMF     H7 3465   2.737   0.402   3.381 -0.6025 -2.3201  2.3651
  249DMF     C1 3466   2.145   1.430   2.330  0.5963  0.3829 -0.2281
  249DMF     N1 3467   2.279   1.381   2.284 -0.2679 -0.7149 -0.4866
  249DMF     C2 3468   2.304   1.232   2.304 -0.6251  0.5705  0.0330
  249DMF     C3 3469   2.372   1.466   2.211  0.3325 -0.4280 -0.3495
  249DMF     O1 3470   2.356   1.584   2.198 -0.5377 -0.6240 -0.5394
  249DMF     H1 3471   2.150   1.424   2.439  1.8218 -1.0227 -0.3432
  249DMF     H2 3472   2.069   1.377   2.270 -2.3074  2.0445  1.8769
  249DMF     H3 3473   2.110   1.531   2.309 -0.5482 -0.3516 -2.0664
  249DMF     H4 3474   2.208   1.178   2.307 -0.5954  0.5211  0.1138
  249DMF     H5 3475   2.339   1.216   2.407  0.2908 -0.2518 -0.3975
  249DMF     H6 3476   2.371   1.192   2.227  0.3168  1.1918  0.5172
  249DMF     H7 3477   2.455   1.404   2.172  1.0862 -1.2409  2.4730
  250DMF     C1 3478   3.274   2.318   2.242 -0.4169 -0.0038  0.1460
  250DMF     N1 3479   3.254   2.253   2.378 -0.4497 -0.6755 -0.5872
  250DMF     C2 3480   3.220   2.341   2.492  0.2783  0.3835  0.8978
  250DMF     C3 3481   3.273   2.121   2.397  0.1372 -0.2414 -0.5546
  250DMF     O1 3482   3.300   2.047   2.310  0.2287  0.0149  0.8843
  250DMF     H1 3483   3.220   2.413   2.232  1.7528  1.1770 -0.6883
  250DMF     H2 3484   3.230   2.255   2.164 -0.7179 -0.2470  0.5119
  250DMF     H3 3485   3.379   2.322   2.213 -0.0812 -1.4341  1.1417
  250DMF     H4 3486   3.298   2.418   2.495  0.7306 -0.0925  1.5715
  250DMF     H5 3487   3.224   2.287   2.588 -3.1812  0.5239  1.1680
  250DMF     H6 3488   3.120   2.381   2.474 -0.2079 -0.6612  1.2064
  250DMF     H7 3489   3.256   2.084   2.499 -0.6106 -0.1300 -0.6378
  251DMF     C1 3490   2.942   0.600   2.596  0.0552  0.5354 -0.4409
  251DMF     N1 3491   2.849   0.543   2.693 -0.3360 -0.2119  0.3569
  251DMF     C2 3492   2.775   0.420   2.659  0.2098  0.3881  0.4574
  251DMF     C3 3493   2.836   0.602   2.813 -0.6334 -0.0051 -0.0336
  251DMF     O1 3494   2.887   0.706   2.843 -0.3318 -0.2469 -0.1006
  251DMF     H1 3495   3.042   0.557   2.610 -0.9829 -2.0143 -0.6060
  251DMF     H2 3496   2.955   0.708   2.613  1.8613  0.1393  0.8957
  251DMF     H3 3497   2.898   0.585   2.497  0.1014  0.3308 -0.4301
  251DMF     H4 3498   2.669   0.441   2.640  0.1537  0.7937  1.1773
  251DMF     H5 3499   2.759   0.357   2.747  1.5437 -0.8682 -0.1868
  251DMF     H6 3500   2.819   0.372   2.571 -0.0719 -0.4709  0.7877
  251DMF     H7 3501   2.767   0.546   2.878 -0.6010 -1.0865 -0.9111
  252DMF     C1 3502   1.936   1.660   0.128  0.3638  0.2031  0.0943
  252DMF     N1 3503   1.843   1.774   0.089 -0.1566  0.0695  0.0908
  252DMF     C2 3504   1.873   1.854  -0.039  0.3278 -0.1608  0.0986
  252DMF     C3 3505   1.722   1.789   0.167  0.1286 -0.1650 -0.3718
  252DMF     O1 3506   1.695   1.729   0.272  0.5365 -0.2878 -0.1282
  252DMF     H1 3507   1.986   1.697   0.218 -0.9335  0.6163  0.6574
  252DMF     H2 3508   2.002   1.632   0.045 -0.2602 -1.4413  0.1279
  252DMF     H3 3509   1.877   1.570   0.149 -0.7020  1.4131  2.4503
  252DMF     H4 3510   1.779   1.891  -0.083  0.4774 -1.5315 -1.4355
  252DMF     H5 3511   1.925   1.786  -0.108  0.5074  0.5303 -0.4497
  252DMF     H6 3512   1.939   1.935  -0.008 -1.5304  1.5129 -0.2258
  252DMF     H7 3513   1.653   1.857   0.114  1.9044 -0.0982 -2.6882
  253DMF     C1 3514   2.887   1.260   2.962  0.7106  0.1381 -0.4287
  253DMF     N1 3515   2.828   1.182   3.071  0.4592  0.6132  0.2863
  253DMF     C2 3516   2.857   1.045   3.084  0.2612  0.3793 -0.1350
  253DMF     C3 3517   2.747   1.235   3.172  0.0098 -0.8987 -0.7081
  253DMF     O1 3518   2.728   1.355   3.187  0.1553  0.2745  0.1193
  253DMF     H1 3519   2.930   1.177   2.905 -0.4522 -2.1071  1.8093
  253DMF     H2 3520   2.950   1.336   3.011 -1.8078  1.6773  0.5307
  253DMF     H3 3521   2.803   1.294   2.900 -0.6214  0.5458  1.5517
  253DMF     H4 3522   2.944   1.020   3.021 -0.3496 -1.0442 -0.4387
  253DMF     H5 3523   2.776   0.978   3.052 -0.2487  0.9522 -0.0539
  253DMF     H6 3524   2.879   1.017   3.187 -1.9360 -0.2711  0.1778
  253DMF     H7 3525   2.702   1.157   3.236 -0.0569  0.3924  0.8333
  254DMF     C1 3526   0.375   1.993   3.424  0.4903 -0.3192 -0.2955
  254DMF     N1 3527   0.519   1.974   3.449 -0.0933  0.2400  0.7307
  254DMF     C2 3528   0.611   1.943   3.330  0.0758  0.0670 -0.6110
  254DMF     C3 3529   0.578   1.978   3.580 -0.0610 -0.8156  0.2138
  254DMF     O1 3530   0.500   2.006   3.668 -0.2655  0.2818 -0.2172
  254DMF     H1 3531   0.321   1.994   3.519 -0.9564 -1.6632 -1.0746
  254DMF     H2 3532   0.340   1.912   3.358 -2.1953 -2.3510  3.4468
  254DMF     H3 3533   0.367   2.084   3.362 -0.4908 -1.3257 -1.6993
  254DMF     H4 3534   0.640   1.840   3.308  0.5308  0.3841 -1.5595
  254DMF     H5 3535   0.703   2.002   3.322 -1.4169  2.5106 -0.2907
  254DMF     H6 3536   0.567   1.974   3.234  0.6602 -0.0070 -0.9039
  254DMF     H7 3537   0.687   1.969   3.597 -0.3898 -0.2657  2.9134
  255DMF     C1 3538   1.120   1.149   0.229 -0.2435 -0.0086 -0.0663
  255DMF     N1 3539   1.052   1.041   0.296  0.5186 -0.2374  0.1617
  255DMF     C2 3540   0.905   1.005   0.268 -0.3147 -0.3301 -0.5339
  255DMF     C3 3541   1.121   0.959   0.382 -0.3272  0.1648 -0.0756
  255DMF     O1 3542   1.243   0.974   0.394  0.0116  0.3166  0.3923
  255DMF     H1 3543   1.186   1.108   0.152 -0.6174 -0.7977  0.0199
  255DMF     H2 3544   1.185   1.204   0.297 -1.5670  0.2882  0.9878
  255DMF     H3 3545   1.049   1.221   0.187  0.4342  1.4573  1.2888
  255DMF     H4 3546   0.882   0.996   0.161 -1.5706 -2.7279 -0.0976
  255DMF     H5 3547   0.842   1.078   0.318 -0.1848 -1.3196  1.1032
  255DMF     H6 3548   0.880   0.910   0.316 -1.6381 -0.2009 -0.9613
  255DMF     H7 3549   1.060   0.878   0.427 -0.3871  1.1744  1.6764
  256DMF     C1 3550   0.172   0.456   2.374  0.7089  0.1675  0.7232
  256DMF     N1 3551   0.290   0.406   2.295  0.4880  0.0617 -0.2119
  256DMF     C2 3552   0.390   0.507   2.258 -0.5939  0.6274  0.1488
  256DMF     C3 3553   0.315   0.271   2.271 -0.1243 -0.0703 -0.1977
  256DMF     O1 3554   0.238   0.178   2.289  0.4295  0.9232  0.8719
  256DMF     H1 3555   0.102   0.499   2.301  1.0232 -1.9353 -0.8518
  256DMF     H2 3556   0.203   0.532   2.446 -1.2238 -1.9043  3.8627
  256DMF     H3 3557   0.122   0.374   2.427 -0.7328 -0.7470 -1.9331
  256DMF     H4 3558   0.333   0.599   2.240 -2.9052 -1.0028 -1.1212
  256DMF     H5 3559   0.443   0.488   2.164 -1.5923  1.2797 -0.5491
  256DMF     H6 3560   0.457   0.541   2.338  0.9385 -1.9854  0.0273
  256DMF     H7 3561   0.413   0.260   2.221 -0.1820 -1.7191  0.0458
  257DMF     C1 3562   2.387   0.369   2.470 -0.5963 -0.5428  0.6584
  257DMF     N1 3563   2.437   0.398   2.334 -0.3154 -0.3522  0.0960
  257DMF     C2 3564   2.571   0.349   2.308  0.5305 -0.2249  0.2757
  257DMF     C3 3565   2.376   0.490   2.252  0.6586 -0.5691  0.3368
  257DMF     O1 3566   2.277   0.556   2.285  0.3292  0.3337  0.1128
  257DMF     H1 3567   2.389   0.464   2.525  0.2098  0.7977 -1.6371
  257DMF     H2 3568   2.445   0.287   2.514 -0.3056  0.0629  1.4005
  257DMF     H3 3569   2.283   0.334   2.464  0.4808 -3.6469 -1.5423
  257DMF     H4 3570   2.637   0.400   2.379  0.5235 -1.4936  1.2190
  257DMF     H5 3571   2.598   0.385   2.208 -1.1592 -0.9877 -0.4853
  257DMF     H6 3572   2.576   0.239   2.315  0.8308 -0.2650 -0.5111
  257DMF     H7 3573   2.426   0.506   2.155  0.9252  0.4328  0.6294
  258DMF     C1 3574   1.322   2.897   0.353  0.2706  0.1371  1.0911
  258DMF     N1 3575   1.292   3.014   0.439 -0.0049 -0.1068  0.1416
  258DMF     C2 3576   1.329   3.152   0.388  0.3319  0.2648  0.1767
  258DMF     C3 3577   1.229   2.999   0.563  1.2393 -0.4790 -0.5464
  258DMF     O1 3578   1.208   2.891   0.618 -0.6709  0.2208  0.0893
  258DMF     H1 3579   1.231   2.840   0.331  2.1290 -2.8014  0.7741
  258DMF     H2 3580   1.388   2.827   0.405  0.5026 -0.5785 -0.1387
  258DMF     H3 3581   1.351   2.926   0.251  1.1524 -0.4953  1.1575
  258DMF     H4 3582   1.428   3.183   0.423  0.6674 -1.0718  0.4548
  258DMF     H5 3583   1.256   3.230   0.412 -0.1850 -0.3332  0.5813
  258DMF     H6 3584   1.314   3.147   0.279 -0.9095 -0.0445  0.3525
  258DMF     H7 3585   1.194   3.092   0.612 -0.7502 -0.6601 -1.5869
  259DMF     C1 3586   3.135   3.354   3.177 -0.4630  0.6749  0.5283
  259DMF     N1 3587   3.024   3.413   3.254 -0.1881  0.7211 -0.7661
  259DMF     C2 3588   3.046   3.545   3.312 -0.1865  0.5371  0.3185
  259DMF     C3 3589   2.913   3.333   3.295  0.0811  0.3403 -0.1622
  259DMF     O1 3590   2.893   3.216   3.254 -0.2068 -0.2482 -0.2236
  259DMF     H1 3591   3.199   3.295   3.244 -1.3933  0.1320  0.9482
  259DMF     H2 3592   3.201   3.433   3.138  0.5835  0.1900  1.2971
  259DMF     H3 3593   3.099   3.283   3.102  1.7170 -0.6593  0.6981
  259DMF     H4 3594   3.011   3.636   3.261 -0.0906  0.5679  0.3076
  259DMF     H5 3595   3.155   3.556   3.309 -0.2422  0.9524 -0.2650
  259DMF     H6 3596   3.013   3.541   3.417 -1.4035 -2.6989 -0.1308
  259DMF     H7 3597   2.847   3.389   3.364  2.5664  2.8014  0.3136
  260DMF     C1 3598   0.550   0.040   3.527 -0.4327 -0.0990 -0.3184
  260DMF     N1 3599   0.426   0.025   3.622 -0.6428  0.3792 -0.1776
  260DMF     C2 3600   0.304  -0.056   3.573 -0.2089 -0.5597 -0.5381
  260DMF     C3 3601   0.415   0.101   3.735  0.0856 -0.3861  0.4359
  260DMF     O1 3602   0.506   0.170   3.773 -0.6415  0.1325  0.0779
  260DMF     H1 3603   0.567   0.143   3.493  0.1766 -0.1259 -0.0910
  260DMF     H2 3604   0.538  -0.024   3.438  0.7480 -0.2793 -0.3490
  260DMF     H3 3605   0.635   0.005   3.586 -1.2230 -2.3731 -0.4479
  260DMF     H4 3606   0.286  -0.135   3.647  0.3832 -0.0556  0.1534
  260DMF     H5 3607   0.316  -0.097   3.472 -2.2905  0.9888 -1.4455
  260DMF     H6 3608   0.223   0.016   3.558 -1.0241 -1.5204 -0.8003
  260DMF     H7 3609   0.311   0.105   3.774 -0.4350 -1.1156 -0.8251
  261DMF     C1 3610   3.354   2.635   2.922 -0.1803 -0.0254 -0.5237
  261DMF     N1 3611   3.431   2.516   2.935 -0.0734 -0.7694 -0.4275
  261DMF     C2 3612   3.441   2.431   2.817 -0.1904  0.2187  0.4732
  261DMF     C3 3613   3.496   2.485   3.057  0.2470 -0.2272  0.4216
  261DMF     O1 3614   3.498   2.556   3.155  0.6651 -0.2809 -0.5212
  261DMF     H1 3615   3.264   2.612   2.981  0.3409  2.5019  1.3535
  261DMF     H2 3616   3.331   2.656   2.817 -0.8309  1.6445 -0.0692
  261DMF     H3 3617   3.404   2.722   2.967 -0.7074  1.2156 -2.2774
  261DMF     H4 3618   3.471   2.329   2.845 -1.2941  0.0886  1.2047
  261DMF     H5 3619   3.518   2.460   2.744  0.5453 -1.9109  0.3615
  261DMF     H6 3620   3.345   2.435   2.764  1.0700  1.8680 -1.8124
  261DMF     H7 3621   3.550   2.389   3.049 -0.1079 -0.5036  1.2071
  262DMF     C1 3622   2.735   0.571   3.669  0.5151 -0.8347  0.1700
  262DMF     N1 3623   2.646   0.689   3.701 -0.0404  0.4016 -0.0426
  262DMF     C2 3624   2.716   0.819   3.724 -0.7393  0.7366 -0.4888
  262DMF     C3 3625   2.508   0.677   3.698 -0.4636 -0.4538 -0.3622
  262DMF     O1 3626   2.450   0.576   3.666 -0.0820 -0.2190  0.0182
  262DMF     H1 3627   2.685   0.480   3.635 -1.0757  0.9724 -2.5367
  262DMF     H2 3628   2.801   0.554   3.755  3.3260  2.0110 -1.3340
  262DMF     H3 3629   2.805   0.594   3.588 -1.1733  0.1891 -1.0274
  262DMF     H4 3630   2.706   0.851   3.829  2.0949  1.0591 -0.2738
  262DMF     H5 3631   2.661   0.892   3.664 -1.1018  0.4882 -0.4592
  262DMF     H6 3632   2.822   0.822   3.695 -1.0463 -0.6782 -1.7926
  262DMF     H7 3633   2.457   0.771   3.723 -0.5182 -0.9566  1.4970
  263DMF     C1 3634   1.722   3.243   2.267  0.2136  0.4589  0.0799
  263DMF     N1 3635   1.716   3.215   2.412 -0.2034 -0.5105  1.1242
  263DMF     C2 3636   1.830   3.139   2.478 -0.0388 -0.1269 -0.2113
  263DMF     C3 3637   1.610   3.259   2.492  0.9524  0.7385 -0.1156
  263DMF     O1 3638   1.513   3.311   2.437  0.4355  0.1766 -0.2430
  263DMF     H1 3639   1.687   3.341   2.231 -0.8259 -0.2570 -0.9134
  263DMF     H2 3640   1.675   3.167   2.204  1.0739  0.7588 -0.9314
  263DMF     H3 3641   1.829   3.238   2.246  0.2042 -0.7056  0.2869
  263DMF     H4 3642   1.915   3.202   2.508  0.2148 -0.6158  0.0862
  263DMF     H5 3643   1.865   3.052   2.422  2.0811  1.6743 -1.8000
  263DMF     H6 3644   1.794   3.113   2.578 -0.3397  1.0963  0.0118
  263DMF     H7 3645   1.622   3.252   2.602 -3.2996  2.1514  0.4932
  264DMF     C1 3646   0.970   1.299   2.397 -0.0414  0.3090  0.0804
  264DMF     N1 3647   1.065   1.375   2.311  0.6308  0.1444  0.1153
  264DMF     C2 3648   1.023   1.502   2.253 -0.2480 -0.6285 -0.5878
  264DMF     C3 3649   1.197   1.335   2.300 -0.8666  0.3000 -0.5136
  264DMF     O1 3650   1.242   1.229   2.351 -0.2271  0.2429 -0.0623
  264DMF     H1 3651   0.959   1.202   2.347 -0.5045  0.4171 -0.0337
  264DMF     H2 3652   0.880   1.361   2.411 -0.1661 -0.2942  2.1180
  264DMF     H3 3653   1.019   1.295   2.494  1.6437  1.4608 -0.6986
  264DMF     H4 3654   0.980   1.569   2.329  0.3789 -0.2199 -0.5876
  264DMF     H5 3655   0.958   1.480   2.168  0.4340  1.0668 -1.5633
  264DMF     H6 3656   1.099   1.566   2.206  0.2559 -0.1583  0.8261
  264DMF     H7 3657   1.258   1.404   2.238 -0.3431  0.2480 -0.0598
  265DMF     C1 3658   0.990   3.301   2.690 -0.3401 -0.0686  0.4414
  265DMF     N1 3659   1.129   3.262   2.684 -0.1767  0.4003 -0.2107
  265DMF     C2 3660   1.168   3.131   2.736  0.5109 -0.2443  0.6055
  265DMF     C3 3661   1.232   3.360   2.654  0.3251 -0.2560 -0.0874
  265DMF     O1 3662   1.202   3.477   2.630  0.5777  0.0778  0.0152
  265DMF     H1 3663   0.928   3.276   2.603  0.6124 -0.7153 -0.0579
  265DMF     H2 3664   0.990   3.409   2.710  3.6588  0.2054 -0.6812
  265DMF     H3 3665   0.940   3.253   2.775  1.4253  0.2500  1.6957
  265DMF     H4 3666   1.123   3.054   2.673  1.6595 -1.8856  1.7524
  265DMF     H5 3667   1.131   3.125   2.840 -0.3303 -0.7029  0.2888
  265DMF     H6 3668   1.276   3.118   2.724  0.6674  2.3580 -1.0760
  265DMF     H7 3669   1.337   3.327   2.664  0.1522 -0.1901  2.1263
  266DMF     C1 3670   2.455   0.144   2.807 -0.0557  0.2367 -0.4327
  266DMF     N1 3671   2.495   0.049   2.699 -0.1858 -0.3253  0.4865
  266DMF     C2 3672   2.401  -0.038   2.640 -0.1749 -0.6492  0.0721
  266DMF     C3 3673   2.631   0.051   2.659 -0.0991  0.0733  0.8573
  266DMF     O1 3674   2.708   0.137   2.689 -0.1791 -0.1248 -0.3210
  266DMF     H1 3675   2.446   0.093   2.903 -1.8921  1.1521 -0.1108
  266DMF     H2 3676   2.351   0.169   2.785 -0.3153 -1.1726 -0.8732
  266DMF     H3 3677   2.520   0.233   2.801 -1.0593  1.1891  2.2659
  266DMF     H4 3678   2.449  -0.095   2.559 -2.1623  1.2433 -2.5500
  266DMF     H5 3679   2.312   0.006   2.593 -1.6750 -3.9941 -0.3971
  266DMF     H6 3680   2.366  -0.111   2.713 -1.5520  1.1827  1.2669
  266DMF     H7 3681   2.655  -0.033   2.591 -1.8190  0.8197 -0.7233
  267DMF     C1 3682   0.306   1.716   3.656  1.0489 -0.4046 -1.0103
  267DMF     N1 3683   0.351   1.598   3.570  0.2789 -0.9126 -0.0471
  267DMF     C2 3684   0.298   1.582   3.434 -0.0875  0.1617  0.5283
  267DMF     C3 3685   0.443   1.507   3.621 -0.0029 -0.2968  0.2102
  267DMF     O1 3686   0.507   1.528   3.723  0.0799  0.2637  0.7852
  267DMF     H1 3687   0.208   1.748   3.618  0.1670 -1.9744 -0.0992
  267DMF     H2 3688   0.371   1.805   3.651 -0.1696  0.4901 -1.3441
  267DMF     H3 3689   0.296   1.683   3.760  2.9651 -2.5809 -1.4854
  267DMF     H4 3690   0.300   1.682   3.390 -0.9643 -0.3766 -0.7588
  267DMF     H5 3691   0.200   1.533   3.446  0.6698 -1.6565 -0.4810
  267DMF     H6 3692   0.365   1.515   3.379 -1.0837  1.0138 -1.7512
  267DMF     H7 3693   0.452   1.413   3.563 -2.5512  0.0165 -0.7593
  268DMF     C1 3694   3.261   3.182   2.836 -0.4847  0.1165 -0.0023
  268DMF     N1 3695   3.243   3.065   2.745  0.3617 -0.5416 -0.4234
  268DMF     C2 3696   3.362   2.986   2.711  0.1729  0.4355  0.5857
  268DMF     C3 3697   3.118   3.026   2.692  0.1856 -0.8148 -0.0292
  268DMF     O1 3698   3.018   3.101   2.702 -0.0145  0.2932 -0.5438
  268DMF     H1 3699   3.167   3.231   2.860 -2.1332 -2.1754 -1.4955
  268DMF     H2 3700   3.314   3.269   2.796 -0.6073 -0.9034 -2.4930
  268DMF     H3 3701   3.294   3.149   2.935 -0.1477 -0.1388 -0.1956
  268DMF     H4 3702   3.441   3.000   2.786 -0.5861 -1.7467  1.8488
  268DMF     H5 3703   3.397   3.004   2.609 -0.2784  1.2385  0.5737
  268DMF     H6 3704   3.331   2.880   2.716  2.7345 -0.3649  0.2143
  268DMF     H7 3705   3.118   2.938   2.625  2.1305 -1.1281  0.3819
  269DMF     C1 3706   0.035   2.155   0.190  0.2697 -0.3156  0.2427
  269DMF     N1 3707   0.058   2.019   0.243  0.1668  0.7514 -0.0801
  269DMF     C2 3708   0.098   1.906   0.148 -0.1919  0.7173 -0.0317
  269DMF     C3 3709   0.011   1.989   0.367  0.0743 -0.1708 -0.4432
  269DMF     O1 3710  -0.032   2.077   0.443  0.1161 -0.1296  0.0144
  269DMF     H1 3711   0.098   2.222   0.250 -0.2721  0.7371 -0.3588
  269DMF     H2 3712  -0.070   2.180   0.209  0.5364  0.9808  0.0470
  269DMF     H3 3713   0.062   2.167   0.084  0.7504  0.3607  0.4327
  269DMF     H4 3714   0.040   1.914   0.056 -0.2032  2.0585  0.0828
  269DMF     H5 3715   0.066   1.816   0.203 -1.1636  1.7427  1.1114
  269DMF     H6 3716   0.207   1.905   0.136  0.1763 -0.6540  2.9990
  269DMF     H7 3717   0.030   1.884   0.395 -0.2628 -0.7120 -2.1526
  270DMF     C1 3718   2.546   2.981   3.181 -0.1858 -0.9081  0.2028
  270DMF     N1 3719   2.513   3.060   3.295 -0.0046 -0.3011 -0.4317
  270DMF     C2 3720   2.591   3.183   3.327  0.0792  0.9194 -0.8700
  270DMF     C3 3721   2.395   3.029   3.363 -0.5497  0.3697  1.1193
  270DMF     O1 3722   2.326   2.932   3.334  0.0622 -0.3787 -0.2255
  270DMF     H1 3723   2.458   2.969   3.116 -1.8157  0.5003  2.0789
  270DMF     H2 3724   2.576   2.881   3.213 -0.7132 -1.7175 -1.7973
  270DMF     H3 3725   2.624   3.034   3.126  1.1156 -3.4070 -0.4254
  270DMF     H4 3726   2.533   3.239   3.401 -0.7247 -0.5298 -0.3784
  270DMF     H5 3727   2.605   3.248   3.240  1.8282  1.0480 -0.5120
  270DMF     H6 3728   2.688   3.157   3.371 -0.0852 -0.3748 -1.2459
  270DMF     H7 3729   2.381   3.092   3.453  2.0459 -1.6481  3.0121
  271DMF     C1 3730   3.257   1.245   2.994 -0.0666  0.1662  0.1197
  271DMF     N1 3731   3.289   1.290   3.134 -0.5511 -0.4254 -0.4201
  271DMF     C2 3732   3.259   1.194   3.249  0.1563 -0.1558 -0.1407
  271DMF     C3 3733   3.379   1.386   3.154  0.1290  0.2416 -0.3908
  271DMF     O1 3734   3.413   1.465   3.066  0.1693 -0.6453 -0.2604
  271DMF     H1 3735   3.159   1.195   2.998 -1.1237  2.1430 -0.3798
  271DMF     H2 3736   3.342   1.181   2.968 -0.2896  0.2489 -0.7970
  271DMF     H3 3737   3.253   1.328   2.922  0.6698 -0.5039 -0.7023
  271DMF     H4 3738   3.155   1.201   3.282  0.2610  2.1778 -0.2087
  271DMF     H5 3739   3.315   1.219   3.340  2.1612  0.2084 -1.4320
  271DMF     H6 3740   3.283   1.096   3.205  2.4239  0.2389  0.1144
  271DMF     H7 3741   3.426   1.384   3.254 -1.3247  0.8590  0.3401
  272DMF     C1 3742   1.783   0.732   2.357  0.1012 -0.5540 -0.1210
  272DMF     N1 3743   1.928   0.750   2.375  0.1052  0.0749 -0.2961
  272DMF     C2 3744   2.015   0.736   2.258  0.4752 -0.5107  0.7094
  272DMF     C3 3745   1.976   0.789   2.501 -0.4029  0.7453  0.1608
  272DMF     O1 3746   1.902   0.806   2.594 -0.2518  0.0454  0.2712
  272DMF     H1 3747   1.738   0.805   2.290 -2.3156 -2.3102 -0.4551
  272DMF     H2 3748   1.730   0.745   2.452 -1.1936  3.4302 -1.3009
  272DMF     H3 3749   1.778   0.635   2.307  0.0566  1.1935 -3.6720
  272DMF     H4 3750   2.122   0.749   2.277  1.1732 -3.1578 -1.2164
  272DMF     H5 3751   1.991   0.810   2.181 -0.4649 -0.0570  1.4172
  272DMF     H6 3752   2.001   0.634   2.219  3.1357 -1.5050  2.2087
  272DMF     H7 3753   2.086   0.797   2.502 -0.4586  1.7976 -1.3616
  273DMF     C1 3754   0.079   1.378   0.602 -0.3177 -0.3612 -0.1740
  273DMF     N1 3755   0.204   1.415   0.662 -0.2479 -0.0541  0.8191
  273DMF     C2 3756   0.310   1.308   0.669 -0.0281  0.0580 -0.2376
  273DMF     C3 3757   0.233   1.544   0.701  0.6758  0.0525 -0.1834
  273DMF     O1 3758   0.145   1.628   0.705 -0.1340 -0.5032 -0.2997
  273DMF     H1 3759   0.003   1.405   0.676 -1.7164  2.4271 -2.5340
  273DMF     H2 3760   0.071   1.270   0.586  1.1016 -0.5104  0.0953
  273DMF     H3 3761   0.055   1.433   0.511 -2.3948  1.7792  1.6073
  273DMF     H4 3762   0.406   1.360   0.680 -1.0326  2.4676 -2.4000
  273DMF     H5 3763   0.319   1.263   0.570  1.2084 -1.1432  0.4049
  273DMF     H6 3764   0.287   1.230   0.743  1.4748 -0.5206 -0.3680
  273DMF     H7 3765   0.340   1.571   0.709  0.9257 -0.9227 -0.1721
  274DMF     C1 3766   3.222   3.357   2.465 -0.0483  0.3094  0.4364
  274DMF     N1 3767   3.294   3.464   2.401 -0.8940  0.3082  0.3173
  274DMF     C2 3768   3.251   3.507   2.266  0.6159  0.1591 -0.9473
  274DMF     C3 3769   3.405   3.529   2.461  0.6852  0.2750 -0.5103
  274DMF     O1 3770   3.452   3.482   2.563 -0.8351  0.3083 -0.4649
  274DMF     H1 3771   3.214   3.378   2.572 -1.4373  0.5290  0.2953
  274DMF     H2 3772   3.276   3.263   2.446  0.0164  0.2668  0.8336
  274DMF     H3 3773   3.121   3.346   2.425 -0.5633 -1.4984  2.1503
  274DMF     H4 3774   3.331   3.549   2.204  1.9685  1.9139  1.8633
  274DMF     H5 3775   3.183   3.591   2.289 -0.0602 -0.3851 -0.9409
  274DMF     H6 3776   3.206   3.426   2.208 -0.1293  1.9386 -2.9021
  274DMF     H7 3777   3.436   3.626   2.418  2.4014 -0.8191 -1.8214
  275DMF     C1 3778   0.643   2.300   3.213 -0.2784  0.3291  0.2971
  275DMF     N1 3779   0.526   2.306   3.308  0.4065 -0.0419 -0.0312
  275DMF     C2 3780   0.389   2.311   3.248 -0.5762 -0.0336  0.0841
  275DMF     C3 3781   0.545   2.297   3.445 -0.8080  0.1983 -0.7897
  275DMF     O1 3782   0.659   2.304   3.496  0.3591 -0.4997  0.1643
  275DMF     H1 3783   0.668   2.400   3.178  3.1480 -1.1896 -1.8641
  275DMF     H2 3784   0.626   2.249   3.117 -0.6860  0.4786  0.2893
  275DMF     H3 3785   0.730   2.261   3.267  0.0645  2.1983  1.1236
  275DMF     H4 3786   0.380   2.241   3.164  0.0734  0.1951 -0.1810
  275DMF     H5 3787   0.376   2.414   3.213 -2.9333  0.0565  1.1613
  275DMF     H6 3788   0.309   2.288   3.319 -0.2415  0.4862  0.6324
  275DMF     H7 3789   0.453   2.272   3.500 -0.9973  1.8590 -0.3405
  276DMF     C1 3790   1.492   0.729   3.247  0.4768  0.4322 -0.1124
  276DMF     N1 3791   1.410   0.813   3.338  0.0663 -0.3401  0.4312
  276DMF     C2 3792   1.306   0.897   3.279 -0.0616  0.2435  0.1830
  276DMF     C3 3793   1.423   0.796   3.478 -0.1036  0.1655  0.6806
  276DMF     O1 3794   1.500   0.719   3.531  0.5993 -0.0950  0.0593
  276DMF     H1 3795   1.550   0.653   3.300 -0.1433 -0.0205 -0.0798
  276DMF     H2 3796   1.563   0.787   3.186  1.8673  0.4395  1.4934
  276DMF     H3 3797   1.428   0.674   3.176  0.2659 -0.5204  0.8165
  276DMF     H4 3798   1.279   0.857   3.181  1.6213 -1.3303  0.3276
  276DMF     H5 3799   1.349   0.995   3.254  0.0243 -0.4892 -2.7214
  276DMF     H6 3800   1.224   0.902   3.351 -2.0182 -2.6979 -1.7226
  276DMF     H7 3801   1.356   0.862   3.534  0.2602  0.5188  0.7044
  277DMF     C1 3802   0.769   0.246   2.911  0.2722 -0.0400 -0.1751
  277DMF     N1 3803   0.916   0.247   2.911 -0.0990 -0.5662 -0.3429
  277DMF     C2 3804   0.977   0.336   2.799  0.6846  0.2527 -0.6636
  277DMF     C3 3805   0.993   0.178   3.002  0.5159 -0.4844  0.7929
  277DMF     O1 3806   0.946   0.125   3.103 -0.3880 -0.3554 -0.0736
  277DMF     H1 3807   0.733   0.309   2.829  0.2109 -0.0300 -0.1401
  277DMF     H2 3808   0.733   0.270   3.011 -0.8782  3.3254 -1.3256
  277DMF     H3 3809   0.745   0.143   2.883  1.2872 -0.5213  0.6830
  277DMF     H4 3810   1.033   0.421   2.839 -3.2477  2.3343  0.6494
  277DMF     H5 3811   0.898   0.358   2.726  0.7204 -1.7023 -1.3402
  277DMF     H6 3812   1.054   0.279   2.746 -0.2688 -0.7130 -1.0271
  277DMF     H7 3813   1.099   0.199   2.983  0.6192  0.0294  1.9129
  278DMF     C1 3814   3.019   3.138   0.719  0.9564  0.2531 -0.0185
  278DMF     N1 3815   3.140   3.180   0.799  0.4902  0.0228  0.2357
  278DMF     C2 3816   3.279   3.162   0.739 -0.2862  0.2595  0.0597
  278DMF     C3 3817   3.121   3.252   0.920  0.0285  0.3993 -0.4929
  278DMF     O1 3818   3.007   3.284   0.963  0.2280  0.2285 -0.5732
  278DMF     H1 3819   2.963   3.068   0.782  0.9174 -0.2684 -0.6221
  278DMF     H2 3820   3.057   3.090   0.628  0.7698  1.0155 -0.4997
  278DMF     H3 3821   2.952   3.221   0.694  0.7236  0.4092  1.0980
  278DMF     H4 3822   3.350   3.210   0.807 -0.0623  0.9524 -0.6524
  278DMF     H5 3823   3.284   3.219   0.646  1.1768  1.0567  0.6088
  278DMF     H6 3824   3.299   3.055   0.725  0.9382  0.4620  0.2097
  278DMF     H7 3825   3.220   3.268   0.966  1.2521 -0.1447 -2.9010
  279DMF     C1 3826   0.926   2.656   2.847  0.1598 -0.0937  0.9514
  279DMF     N1 3827   0.850   2.719   2.961 -0.1498  0.1002 -0.2499
  279DMF     C2 3828   0.858   2.869   2.987  0.3439 -0.1614  0.0192
  279DMF     C3 3829   0.747   2.642   3.029 -0.1814 -0.7329  0.4590
  279DMF     O1 3830   0.730   2.525   3.006  0.1988 -0.1850 -0.0255
  279DMF     H1 3831   1.028   2.624   2.872  1.1474  1.2798 -1.1304
  279DMF     H2 3832   0.928   2.732   2.768  1.2595 -0.4332  0.6360
  279DMF     H3 3833   0.865   2.570   2.816  1.4733 -0.9071  0.5902
  279DMF     H4 3834   0.826   2.894   3.089  0.9859 -1.5828  0.5820
  279DMF     H5 3835   0.784   2.914   2.921 -1.9526 -0.4494  2.3067
  279DMF     H6 3836   0.961   2.907   2.976  0.2637  1.0572  2.9296
  279DMF     H7 3837   0.687   2.694   3.106 -0.4170  0.4109 -0.4821
  280DMF     C1 3838   0.323   3.410   3.084 -0.5458 -0.0373 -0.1091
  280DMF     N1 3839   0.235   3.327   2.993  0.1252  0.2199 -0.1542
  280DMF     C2 3840   0.290   3.206   2.932 -0.3668  0.4772  0.3216
  280DMF     C3 3841   0.131   3.398   2.926 -0.1166  0.4090  0.0294
  280DMF     O1 3842   0.081   3.502   2.969 -0.2615  0.3183 -0.1185
  280DMF     H1 3843   0.331   3.374   3.188  2.7220  0.1334 -0.2544
  280DMF     H2 3844   0.276   3.509   3.094 -0.6485 -0.2551  1.9143
  280DMF     H3 3845   0.420   3.428   3.037 -0.5014  0.5013  0.1890
  280DMF     H4 3846   0.385   3.165   2.969 -0.3403  0.6914  0.4876
  280DMF     H5 3847   0.293   3.212   2.822  2.7547  0.9286  0.3844
  280DMF     H6 3848   0.224   3.126   2.967  0.0372 -0.5607 -1.2238
  280DMF     H7 3849   0.103   3.349   2.830  0.1519 -2.4172  1.3558
  281DMF     C1 3850   0.442   0.394   2.697  0.4469  0.3630 -0.0991
  281DMF     N1 3851   0.337   0.348   2.798 -0.4672 -0.3979 -0.6463
  281DMF     C2 3852   0.204   0.321   2.743 -0.2178  0.4726 -0.4123
  281DMF     C3 3853   0.373   0.354   2.936  0.3148  0.2886  0.1300
  281DMF     O1 3854   0.481   0.387   2.975 -0.5382  0.5229 -0.4080
  281DMF     H1 3855   0.479   0.497   2.707  0.6265  0.2721  0.1794
  281DMF     H2 3856   0.399   0.396   2.596  1.3619 -0.2910 -0.5065
  281DMF     H3 3857   0.530   0.333   2.720  0.7027  0.7255 -0.1055
  281DMF     H4 3858   0.182   0.393   2.663 -2.1813 -1.0570 -1.2881
  281DMF     H5 3859   0.130   0.312   2.825  2.4764 -0.5040  1.9889
  281DMF     H6 3860   0.207   0.220   2.703 -0.2265  0.5644 -0.6426
  281DMF     H7 3861   0.291   0.329   3.006 -0.5164  0.2647 -0.8314
  282DMF     C1 3862   1.388   1.997   2.266 -0.1488  0.3019  0.2841
  282DMF     N1 3863   1.344   1.970   2.403  0.1092 -0.1402 -0.2544
  282DMF     C2 3864   1.339   2.080   2.498 -0.2526  0.2393  0.3173
  282DMF     C3 3865   1.293   1.845   2.443  0.2402  0.0925 -0.8246
  282DMF     O1 3866   1.278   1.754   2.368 -0.2548  0.2310  0.3884
  282DMF     H1 3867   1.322   2.071   2.219  0.3105  1.0751  0.8315
  282DMF     H2 3868   1.381   1.904   2.209  0.2246  0.1387  0.5012
  282DMF     H3 3869   1.487   2.045   2.268 -0.8041  1.6602  1.8196
  282DMF     H4 3870   1.375   2.051   2.597 -0.1671  0.4523  0.3474
  282DMF     H5 3871   1.232   2.103   2.490 -0.6386 -1.1490  1.2872
  282DMF     H6 3872   1.403   2.164   2.469 -2.3550  1.4046 -1.0840
  282DMF     H7 3873   1.277   1.835   2.552  1.8349 -1.6752 -0.7289
  283DMF     C1 3874   0.670   1.090   2.256  0.0342 -0.5030 -0.2929
  283DMF     N1 3875   0.583   0.977   2.246  0.3316  0.1615 -0.6572
  283DMF     C2 3876   0.648   0.843   2.255 -0.0143  0.8289  0.0078
  283DMF     C3 3877   0.443   0.987   2.233  0.0415 -0.1838 -0.0054
  283DMF     O1 3878   0.382   1.090   2.209 -0.6836  0.4732  0.2247
  283DMF     H1 3879   0.771   1.062   2.288 -0.0551  0.1946  0.6104
  283DMF     H2 3880   0.644   1.158   2.338  2.8113 -1.0741  1.1136
  283DMF     H3 3881   0.684   1.146   2.162  0.2151 -0.1450 -0.0552
  283DMF     H4 3882   0.656   0.808   2.358  4.0472 -0.0762 -0.5366
  283DMF     H5 3883   0.751   0.840   2.217  0.3007 -3.2218  0.9605
  283DMF     H6 3884   0.592   0.762   2.207 -0.0560  0.7854  0.1306
  283DMF     H7 3885   0.383   0.897   2.253  2.9981 -1.9337  1.2827
  284DMF     C1 3886   2.241   3.277   3.144 -0.0039  0.6322  0.5320
  284DMF     N1 3887   2.158   3.156   3.172  0.1656 -0.7664 -0.0720
  284DMF     C2 3888   2.084   3.146   3.304 -0.0108 -0.6990 -0.3669
  284DMF     C3 3889   2.167   3.043   3.086  0.5694  0.2789 -0.0435
  284DMF     O1 3890   2.235   3.044   2.981  0.0430 -0.3976 -0.4213
  284DMF     H1 3891   2.200   3.365   3.194  4.5573  1.1646  3.6890
  284DMF     H2 3892   2.246   3.291   3.035  1.1974  0.9574  0.6224
  284DMF     H3 3893   2.342   3.260   3.186  0.9643 -0.7601 -2.2170
  284DMF     H4 3894   1.995   3.209   3.290  0.3620 -0.2629 -0.8134
  284DMF     H5 3895   2.151   3.198   3.373 -1.7587 -1.8861  2.2822
  284DMF     H6 3896   2.055   3.049   3.345 -0.9173  0.0811  0.8476
  284DMF     H7 3897   2.094   2.968   3.121 -1.4326  2.4769  0.6275
  285DMF     C1 3898   2.708   2.084   2.325 -0.2358  0.9955 -0.5320
  285DMF     N1 3899   2.848   2.126   2.300  0.0262 -0.9048  0.1290
  285DMF     C2 3900   2.878   2.272   2.293 -0.5348 -0.0461  0.2626
  285DMF     C3 3901   2.943   2.031   2.269 -0.5997  0.2847 -0.1390
  285DMF     O1 3902   2.911   1.914   2.255 -0.1731  0.0121 -0.0297
  285DMF     H1 3903   2.643   2.171   2.340 -0.2492  0.8906  0.0431
  285DMF     H2 3904   2.695   2.019   2.412  0.5788 -1.6263 -2.2958
  285DMF     H3 3905   2.676   2.032   2.234 -3.0171  0.9320  0.4376
  285DMF     H4 3906   2.912   2.289   2.191  0.2272  2.0902  0.8532
  285DMF     H5 3907   2.963   2.308   2.354  0.8179  0.4706 -1.8903
  285DMF     H6 3908   2.795   2.337   2.322  0.7806  2.5839 -1.7050
  285DMF     H7 3909   3.049   2.063   2.270 -0.5603  0.1395  0.6334
  286DMF     C1 3910   2.365   2.575   3.654 -0.1990 -0.3144  0.1957
  286DMF     N1 3911   2.288   2.691   3.604  0.2246  0.0581  0.0715
  286DMF     C2 3912   2.300   2.816   3.673  0.7422  0.2454  0.7511
  286DMF     C3 3913   2.195   2.672   3.512  0.0082 -0.0613  0.8996
  286DMF     O1 3914   2.190   2.561   3.455 -0.1644 -0.6512 -0.1891
  286DMF     H1 3915   2.453   2.547   3.594  0.6952  0.8331  0.9459
  286DMF     H2 3916   2.297   2.490   3.641 -1.0476  0.5762 -1.2310
  286DMF     H3 3917   2.396   2.593   3.758  2.2023  0.3996 -0.6144
  286DMF     H4 3918   2.281   2.908   3.615  1.1232 -1.4262 -2.1148
  286DMF     H5 3919   2.406   2.833   3.696  1.7637 -4.6695  0.1040
  286DMF     H6 3920   2.250   2.828   3.770 -1.3040  0.7499 -0.3450
  286DMF     H7 3921   2.125   2.755   3.493 -0.2815 -0.2541  1.1294
  287DMF     C1 3922   1.735   1.208   2.887 -0.0777 -0.5572  0.0063
  287DMF     N1 3923   1.719   1.182   3.029  0.4071  1.0127 -0.2575
  287DMF     C2 3924   1.796   1.252   3.135 -0.0798 -0.0808 -0.0773
  287DMF     C3 3925   1.632   1.078   3.071 -0.0839  0.4542 -0.2810
  287DMF     O1 3926   1.551   1.019   3.003  0.2880 -0.4272 -0.1007
  287DMF     H1 3927   1.788   1.302   2.865 -1.6078 -0.2416 -2.5510
  287DMF     H2 3928   1.637   1.222   2.838  0.2682 -1.9424 -1.1070
  287DMF     H3 3929   1.796   1.135   2.833 -0.5005  1.0586 -2.7363
  287DMF     H4 3930   1.874   1.185   3.174  1.2142  1.0763 -0.6237
  287DMF     H5 3931   1.742   1.290   3.222 -1.0735 -1.0202 -0.2645
  287DMF     H6 3932   1.858   1.330   3.089  0.9338  0.8762  2.7717
  287DMF     H7 3933   1.644   1.064   3.180  0.2972 -0.0440 -0.3873
  288DMF     C1 3934   0.476   2.434   2.606  0.0283 -0.0280 -0.2754
  288DMF     N1 3935   0.569   2.382   2.713 -0.3244  0.2498  0.7278
  288DMF     C2 3936   0.693   2.324   2.669  0.3250  0.1681 -0.2221
  288DMF     C3 3937   0.548   2.412   2.846  0.0784  0.1407 -0.5676
  288DMF     O1 3938   0.448   2.479   2.884 -0.5759 -0.2231  0.4202
  288DMF     H1 3939   0.459   2.352   2.535 -0.2123 -0.5192  0.3450
  288DMF     H2 3940   0.531   2.518   2.563  1.3317 -0.8602 -0.2954
  288DMF     H3 3941   0.382   2.475   2.644 -0.7141 -0.2964 -1.8307
  288DMF     H4 3942   0.677   2.268   2.576 -2.5029  0.7424 -0.1402
  288DMF     H5 3943   0.731   2.263   2.752  0.8801  0.1871 -0.4606
  288DMF     H6 3944   0.771   2.398   2.650  0.6516 -0.0869  0.1264
  288DMF     H7 3945   0.612   2.350   2.912 -1.1515 -0.8015 -0.2325
  289DMF     C1 3946   3.125   1.308   0.346  0.0921 -0.1408 -0.2707
  289DMF     N1 3947   3.072   1.172   0.395 -0.2982 -0.3160  0.2801
  289DMF     C2 3948   3.137   1.103   0.508 -0.5999 -0.2775 -0.3398
  289DMF     C3 3949   2.968   1.113   0.331  0.2707 -0.6156  0.3377
  289DMF     O1 3950   2.895   1.173   0.250 -0.7508 -0.5351 -0.3570
  289DMF     H1 3951   3.118   1.316   0.237  0.0549  1.0752 -0.1932
  289DMF     H2 3952   3.230   1.329   0.370  0.2865  1.2708 -2.1981
  289DMF     H3 3953   3.060   1.386   0.388 -0.4593 -1.0587  0.6145
  289DMF     H4 3954   3.069   1.121   0.592  1.1435  0.4487  0.9409
  289DMF     H5 3955   3.239   1.141   0.517 -0.2335 -0.8756 -1.7263
  289DMF     H6 3956   3.148   0.999   0.475 -0.4589 -0.0059 -1.1751
  289DMF     H7 3957   2.954   1.012   0.372 -1.7368 -1.2640 -1.8337
  290DMF     C1 3958   1.868   0.218   3.293 -0.2852  0.0957 -0.2619
  290DMF     N1 3959   1.832   0.347   3.372 -0.5196 -0.2912 -0.5982
  290DMF     C2 3960   1.727   0.333   3.474 -0.1822 -0.4907 -0.1847
  290DMF     C3 3961   1.927   0.451   3.367  0.2516 -0.4483 -0.3977
  290DMF     O1 3962   2.026   0.456   3.296  0.3509  0.0934 -0.3427
  290DMF     H1 3963   1.970   0.220   3.252  0.0269 -0.8917  0.4419
  290DMF     H2 3964   1.793   0.212   3.213 -1.1870 -0.5351  0.6126
  290DMF     H3 3965   1.861   0.127   3.355  0.9576 -0.1365 -0.4543
  290DMF     H4 3966   1.766   0.266   3.551 -0.0112  0.9609  1.0015
  290DMF     H5 3967   1.640   0.277   3.435  1.0732 -3.8644  1.7184
  290DMF     H6 3968   1.693   0.435   3.496 -1.3922 -0.5561 -1.6154
  290DMF     H7 3969   1.888   0.530   3.433 -1.8487 -2.3131  0.6386
  291DMF     C1 3970   1.153   0.661   2.245 -0.1285  1.3576 -0.3469
  291DMF     N1 3971   1.238   0.783   2.280  0.9788 -0.4219  0.1379
  291DMF     C2 3972   1.180   0.917   2.250 -0.1298 -0.0218  0.2600
  291DMF     C3 3973   1.375   0.773   2.307  0.3391  0.4120  0.1273
  291DMF     O1 3974   1.431   0.662   2.302 -0.2470 -0.3811  0.0077
  291DMF     H1 3975   1.210   0.583   2.193  0.4881  0.5772  1.4527
  291DMF     H2 3976   1.076   0.686   2.171 -0.8559 -2.2194 -0.9046
  291DMF     H3 3977   1.121   0.613   2.338  1.4139 -0.4203 -0.7102
  291DMF     H4 3978   1.126   0.943   2.342 -1.6868  1.5959 -1.0585
  291DMF     H5 3979   1.110   0.913   2.165  0.4098  1.3755 -0.2676
  291DMF     H6 3980   1.252   0.998   2.230  0.2993 -0.0580  1.6448
  291DMF     H7 3981   1.425   0.872   2.313  1.2320  0.2661 -3.6653
  292DMF     C1 3982   1.151   2.126   3.639 -0.1000  0.1039 -0.5623
  292DMF     N1 3983   1.033   2.198   3.584  0.2937 -0.0272  0.4040
  292DMF     C2 3984   1.016   2.172   3.440 -0.2702  0.2334 -0.2242
  292DMF     C3 3985   0.956   2.288   3.660  0.1852 -0.3218  0.0771
  292DMF     O1 3986   0.980   2.302   3.777 -0.1506 -0.0287 -0.3799
  292DMF     H1 3987   1.191   2.174   3.729 -1.6405  0.4830 -0.0682
  292DMF     H2 3988   1.235   2.115   3.569 -0.7934 -1.4813 -1.1709
  292DMF     H3 3989   1.119   2.025   3.667  2.0444 -0.2416  0.6899
  292DMF     H4 3990   1.083   2.093   3.403  0.2414  0.5086  0.1208
  292DMF     H5 3991   1.027   2.267   3.387  1.4204  0.7651  1.0247
  292DMF     H6 3992   0.913   2.135   3.427  0.3808 -1.7548  0.1266
  292DMF     H7 3993   0.873   2.343   3.612  0.9065  0.8518  0.1478
  293DMF     C1 3994   1.917   2.745   3.205  0.0362  0.0597 -0.0014
  293DMF     N1 3995   1.865   2.624   3.128 -0.1223 -0.7938 -0.2247
  293DMF     C2 3996   1.919   2.588   2.996 -0.1227 -0.9642  0.4231
  293DMF     C3 3997   1.796   2.520   3.207  0.8351 -0.2664 -0.1871
  293DMF     O1 3998   1.749   2.528   3.324  0.1999 -0.0693 -0.3992
  293DMF     H1 3999   1.854   2.834   3.202  0.4789  0.3395 -1.6092
  293DMF     H2 4000   2.019   2.754   3.164  0.1288 -0.5655  0.0808
  293DMF     H3 4001   1.926   2.709   3.308  0.4344 -0.0311 -0.0675
  293DMF     H4 4002   1.836   2.580   2.925 -0.7452 -1.1158  1.1683
  293DMF     H5 4003   1.968   2.494   3.022  2.3334  0.0390 -0.4127
  293DMF     H6 4004   1.999   2.655   2.962  0.0813 -0.7285  1.3535
  293DMF     H7 4005   1.786   2.430   3.144 -0.6551  0.6426 -1.3063
  294DMF     C1 4006   1.512   0.308   0.435  0.1036 -0.4588  0.3674
  294DMF     N1 4007   1.400   0.275   0.523 -0.6328  0.2430  0.5248
  294DMF     C2 4008   1.437   0.177   0.630 -0.0743  0.0250  0.1247
  294DMF     C3 4009   1.273   0.319   0.479  0.2454 -0.1461  0.3569
  294DMF     O1 4010   1.260   0.400   0.386  0.0071  0.0611  0.7778
  294DMF     H1 4011   1.531   0.415   0.444  1.8252 -0.7722  0.6940
  294DMF     H2 4012   1.486   0.292   0.330 -1.7235 -0.9730  0.8728
  294DMF     H3 4013   1.606   0.254   0.453  1.1107  0.9253 -0.6937
  294DMF     H4 4014   1.394   0.206   0.727 -2.8950 -2.8521 -0.1605
  294DMF     H5 4015   1.544   0.159   0.642 -0.4812 -2.0828  0.7752
  294DMF     H6 4016   1.387   0.085   0.597 -0.7643  0.5788 -0.3922
  294DMF     H7 4017   1.185   0.279   0.534 -0.7047  1.2123 -0.1651
  295DMF     C1 4018   1.871   1.908   2.622 -0.2779 -0.3838 -0.3261
  295DMF     N1 4019   1.747   1.870   2.691  0.3148  0.2234  0.5490
  295DMF     C2 4020   1.632   1.842   2.610 -0.0466  0.1876 -0.5302
  295DMF     C3 4021   1.753   1.822   2.830 -0.3038  0.5553 -0.3331
  295DMF     O1 4022   1.855   1.830   2.893  0.1486  0.3400 -0.7017
  295DMF     H1 4023   1.856   1.919   2.514 -3.8073  0.2254  0.1594
  295DMF     H2 4024   1.932   1.816   2.622  0.2383 -0.0785 -3.7839
  295DMF     H3 4025   1.909   2.002   2.663 -0.9780 -0.2385  0.0055
  295DMF     H4 4026   1.639   1.867   2.503 -0.0482 -2.7235 -1.2465
  295DMF     H5 4027   1.541   1.891   2.647  1.0691  0.2719  2.1520
  295DMF     H6 4028   1.619   1.733   2.618 -3.0283  0.5679  0.2347
  295DMF     H7 4029   1.657   1.781   2.868 -0.9191  1.6946 -0.6255
  296DMF     C1 4030   0.348   2.967   2.696 -0.0747 -0.2372  0.3710
  296DMF     N1 4031   0.387   2.847   2.783 -0.1211  0.7104  0.2164
  296DMF     C2 4032   0.506   2.851   2.862 -0.0594  0.4065 -0.3831
  296DMF     C3 4033   0.292   2.753   2.807  0.2850 -0.0284  0.2493
  296DMF     O1 4034   0.184   2.746   2.744  0.5850 -0.0260 -0.2096
  296DMF     H1 4035   0.415   3.053   2.694  1.5903 -1.4534  1.8663
  296DMF     H2 4036   0.242   2.994   2.705  0.0208 -0.2661  1.5500
  296DMF     H3 4037   0.342   2.937   2.590 -2.8422 -1.3400  0.7878
  296DMF     H4 4038   0.528   2.749   2.897 -1.3885 -0.6455 -2.5246
  296DMF     H5 4039   0.497   2.918   2.948 -1.5959 -0.2489 -0.0155
  296DMF     H6 4040   0.588   2.874   2.792  1.4685  1.7075  1.7740
  296DMF     H7 4041   0.320   2.676   2.882 -0.0848 -0.8519 -0.4593
  297DMF     C1 4042   2.814   0.064   2.253 -0.2566  0.0950 -0.6888
  297DMF     N1 4043   2.759  -0.073   2.225 -0.3245  0.0819 -0.0576
  297DMF     C2 4044   2.845  -0.191   2.235 -0.8335 -0.3101  0.5479
  297DMF     C3 4045   2.622  -0.105   2.232  0.3238 -0.7095 -0.3394
  297DMF     O1 4046   2.535  -0.020   2.235 -0.0275  0.0996 -0.0241
  297DMF     H1 4047   2.829   0.082   2.360 -1.8211 -1.0611 -0.2512
  297DMF     H2 4048   2.737   0.137   2.225 -0.9035  0.4319  1.8503
  297DMF     H3 4049   2.898   0.083   2.185  0.5088 -1.8161 -0.3017
  297DMF     H4 4050   2.796  -0.256   2.308 -1.3055  0.1711  0.6671
  297DMF     H5 4051   2.934  -0.160   2.291 -1.2444  1.1731  0.3979
  297DMF     H6 4052   2.868  -0.250   2.146  0.1065 -0.9426  1.1911
  297DMF     H7 4053   2.613  -0.214   2.219 -0.5392 -0.8655  1.4793
  298DMF     C1 4054   1.372   0.118   2.262  0.4284 -0.5394  0.2580
  298DMF     N1 4055   1.436   0.241   2.224 -0.0562  0.1028  0.2022
  298DMF     C2 4056   1.583   0.240   2.229 -0.5906 -0.4290 -0.3192
  298DMF     C3 4057   1.352   0.358   2.204 -0.1306  0.7273  0.3416
  298DMF     O1 4058   1.233   0.335   2.216 -0.1384  0.2008  0.1774
  298DMF     H1 4059   1.335   0.125   2.365 -1.6518  0.8708 -0.5308
  298DMF     H2 4060   1.441   0.034   2.248  1.2517  0.0430  0.8222
  298DMF     H3 4061   1.283   0.096   2.201 -0.0969  0.4302  0.6743
  298DMF     H4 4062   1.611   0.338   2.187  0.3053  0.7320  2.8610
  298DMF     H5 4063   1.639   0.164   2.173 -1.8280 -0.8772 -0.9689
  298DMF     H6 4064   1.608   0.241   2.336 -2.6267  1.4604  0.2003
  298DMF     H7 4065   1.403   0.448   2.166  1.5510 -1.2695 -2.3319
  299DMF     C1 4066   1.799   3.346   2.783  0.5051 -0.2576  0.2281
  299DMF     N1 4067   1.919   3.380   2.860 -0.5819  0.1611 -0.4880
  299DMF     C2 4068   2.053   3.339   2.808  0.2479  0.5556 -0.2963
  299DMF     C3 4069   1.907   3.431   2.986  1.0657  0.0394  0.2108
  299DMF     O1 4070   1.804   3.458   3.044 -0.2193 -0.0382  0.2257
  299DMF     H1 4071   1.820   3.344   2.676 -0.0827  1.7595  0.0688
  299DMF     H2 4072   1.718   3.415   2.810 -0.8197 -0.9985 -1.7329
  299DMF     H3 4073   1.780   3.244   2.820  2.6716 -1.6277 -2.2379
  299DMF     H4 4074   2.138   3.409   2.813  2.4280 -1.9057 -1.4282
  299DMF     H5 4075   2.051   3.318   2.700 -3.0976 -0.3808 -0.0756
  299DMF     H6 4076   2.098   3.259   2.868 -1.6098 -0.5000 -0.2981
  299DMF     H7 4077   2.007   3.440   3.033  1.2161  1.3369 -0.3627
  300DMF     C1 4078   2.616   1.484   2.452  0.8692  0.4757  0.4732
  300DMF     N1 4079   2.626   1.608   2.376 -0.4173  1.1041 -0.2594
  300DMF     C2 4080   2.541   1.717   2.427  0.1533  0.2153  0.0292
  300DMF     C3 4081   2.706   1.626   2.253  0.1028 -0.5990 -0.2177
  300DMF     O1 4082   2.771   1.539   2.209  0.4267 -0.0899  0.1763
  300DMF     H1 4083   2.654   1.502   2.554  0.6127  2.4949  0.2304
  300DMF     H2 4084   2.665   1.400   2.402  0.5800 -1.4365  3.2780
  300DMF     H3 4085   2.510   1.460   2.462  1.2489 -1.3763  0.2002
  300DMF     H4 4086   2.611   1.799   2.445  0.6669 -0.1151 -0.4518
  300DMF     H5 4087   2.476   1.681   2.508  0.2191 -3.0795 -1.3333
  300DMF     H6 4088   2.468   1.749   2.351  2.3654  1.5877 -1.5653
  300DMF     H7 4089   2.692   1.727   2.211  0.4838  0.2738  1.6644
  301DMF     C1 4090   1.740   3.115   0.246  0.2377  0.2038 -0.7151
  301DMF     N1 4091   1.689   2.979   0.211  0.1391  0.4544  0.0814
  301DMF     C2 4092   1.769   2.873   0.272  0.1168 -0.3713 -0.5426
  301DMF     C3 4093   1.594   2.956   0.109 -0.4940  0.2746  0.0730
  301DMF     O1 4094   1.519   3.041   0.065 -0.7952  0.0597  0.8691
  301DMF     H1 4095   1.733   3.136   0.354 -1.7659  1.5686 -1.0827
  301DMF     H2 4096   1.677   3.193   0.204  0.8700  0.1351 -1.7962
  301DMF     H3 4097   1.844   3.127   0.216  0.8437  0.1719  1.2660
  301DMF     H4 4098   1.788   2.901   0.376 -0.7242 -1.8528  0.0302
  301DMF     H5 4099   1.863   2.876   0.217 -0.1931  1.9473 -1.0061
  301DMF     H6 4100   1.717   2.777   0.261 -3.2045  1.0165  1.9883
  301DMF     H7 4101   1.590   2.849   0.083  0.3468 -0.0955  1.4589
  302DMF     C1 4102   1.261   0.588   2.619  0.2307 -0.3286 -0.4739
  302DMF     N1 4103   1.278   0.445   2.573 -0.4942  0.2946  0.5417
  302DMF     C2 4104   1.420   0.387   2.562 -0.1691  0.3006 -0.1171
  302DMF     C3 4105   1.173   0.374   2.507 -0.0464 -0.0319 -0.1475
  302DMF     O1 4106   1.056   0.412   2.499  0.2155 -0.5475  0.2442
  302DMF     H1 4107   1.286   0.653   2.535 -1.1219  2.1778  1.0039
  302DMF     H2 4108   1.319   0.620   2.706  0.5991 -1.5855 -0.2513
  302DMF     H3 4109   1.153   0.610   2.626  0.2739  0.0153 -0.8800
  302DMF     H4 4110   1.477   0.407   2.653  0.6161 -0.3328 -0.4702
  302DMF     H5 4111   1.461   0.430   2.469 -0.2420  0.4890 -0.0621
  302DMF     H6 4112   1.398   0.280   2.564 -0.7745  0.4460  3.0010
  302DMF     H7 4113   1.212   0.274   2.477 -0.4122 -0.9276  2.2365
  303DMF     C1 4114   2.216   2.926   0.712  0.3228 -0.8024 -0.3362
  303DMF     N1 4115   2.212   2.898   0.859  0.6868  0.6861  0.1544
  303DMF     C2 4116   2.087   2.928   0.936  0.6116  0.1091 -0.0881
  303DMF     C3 4117   2.326   2.848   0.922 -0.9149 -0.1297  0.6040
  303DMF     O1 4118   2.425   2.821   0.856  0.0546  0.2284 -0.4399
  303DMF     H1 4119   2.265   3.022   0.695 -1.3403 -0.1275 -1.4152
  303DMF     H2 4120   2.111   2.916   0.681  0.0471  0.8062  0.0494
  303DMF     H3 4121   2.267   2.846   0.657  0.1250 -0.3267 -1.2099
  303DMF     H4 4122   2.104   2.932   1.045  0.8452 -0.9303 -0.0787
  303DMF     H5 4123   2.010   2.851   0.924 -1.0474  1.5280  1.2133
  303DMF     H6 4124   2.060   3.032   0.918 -1.3431 -0.4502 -0.4816
  303DMF     H7 4125   2.314   2.845   1.031 -0.6493 -0.8918  0.6148
  304DMF     C1 4126   0.473   2.029   2.937 -0.4772  0.3826 -0.3730
  304DMF     N1 4127   0.352   2.067   2.861 -0.9132  0.8577 -1.0074
  304DMF     C2 4128   0.231   2.123   2.939 -0.3612 -0.1813  0.0677
  304DMF     C3 4129   0.358   2.070   2.720 -0.3322  0.2148  0.0607
  304DMF     O1 4130   0.463   2.046   2.659  0.3690 -0.3163  0.0747
  304DMF     H1 4131   0.511   2.121   2.982 -1.3286 -0.4310  2.0674
  304DMF     H2 4132   0.551   1.979   2.878 -0.7475  2.6294 -2.7428
  304DMF     H3 4133   0.446   1.973   3.027  0.0774  0.3206 -0.2427
  304DMF     H4 4134   0.140   2.082   2.894 -0.7245 -0.4860  1.0830
  304DMF     H5 4135   0.243   2.232   2.940 -0.3451 -0.1841  0.1415
  304DMF     H6 4136   0.227   2.090   3.043 -0.2253 -0.7271 -0.0960
  304DMF     H7 4137   0.269   2.110   2.668 -1.2466 -0.5545  1.0335
  305DMF     C1 4138   1.573   1.095   2.236  0.4387  0.2049 -0.5298
  305DMF     N1 4139   1.673   1.093   2.341  0.8676  0.5845 -0.1015
  305DMF     C2 4140   1.817   1.126   2.307  0.6442 -0.0316 -0.3277
  305DMF     C3 4141   1.648   1.045   2.474 -0.6259  0.2831 -0.7663
  305DMF     O1 4142   1.540   1.016   2.519  0.6495  0.2460  0.4795
  305DMF     H1 4143   1.475   1.114   2.281  1.8172  0.6248  2.3797
  305DMF     H2 4144   1.564   0.996   2.189  1.1347  1.5063 -3.4914
  305DMF     H3 4145   1.601   1.164   2.156 -2.6681  0.8182 -1.1556
  305DMF     H4 4146   1.811   1.177   2.210  0.3734  0.3341 -0.1208
  305DMF     H5 4147   1.877   1.035   2.291  2.2383  1.1608 -1.2288
  305DMF     H6 4148   1.858   1.197   2.380  1.2789  0.0977 -0.8042
  305DMF     H7 4149   1.742   1.035   2.531 -1.5794 -0.3541  0.7267
  306DMF     C1 4150   1.714   1.502   2.387 -0.1484  0.0322  0.5599
  306DMF     N1 4151   1.643   1.604   2.290  0.5722 -0.1597  0.9555
  306DMF     C2 4152   1.509   1.572   2.243  0.0165  0.1310 -0.0350
  306DMF     C3 4153   1.701   1.734   2.271 -0.3574 -0.5983 -0.8441
  306DMF     O1 4154   1.816   1.767   2.301  0.1939  0.1176  0.2187
  306DMF     H1 4155   1.794   1.445   2.338 -0.6528 -2.0534  2.0654
  306DMF     H2 4156   1.637   1.428   2.414 -0.9413  1.1089  1.3335
  306DMF     H3 4157   1.740   1.562   2.475 -0.4257  0.7390  0.1697
  306DMF     H4 4158   1.467   1.652   2.181  2.4475  0.4110 -1.3607
  306DMF     H5 4159   1.450   1.553   2.333  0.6347 -0.8663  0.1620
  306DMF     H6 4160   1.526   1.490   2.172  2.2089  0.5802 -0.0328
  306DMF     H7 4161   1.636   1.800   2.210  1.0096  0.7471 -0.8642
  307DMF     C1 4162   2.906   2.749   3.146 -0.4186  0.0964  0.1489
  307DMF     N1 4163   3.053   2.771   3.160 -0.0691  0.7442  0.0347
  307DMF     C2 4164   3.104   2.905   3.130  0.0986 -0.1097 -1.0022
  307DMF     C3 4165   3.124   2.663   3.215  0.3723 -0.0121  0.3957
  307DMF     O1 4166   3.072   2.559   3.246 -0.3158  0.3899  0.1173
  307DMF     H1 4167   2.854   2.811   3.220  1.5544  2.3476 -0.3054
  307DMF     H2 4168   2.877   2.643   3.150  1.0018 -0.3687 -1.3572
  307DMF     H3 4169   2.876   2.792   3.049  2.7742 -1.1395 -1.4645
  307DMF     H4 4170   3.153   2.909   3.032 -0.6672 -1.4927 -1.4538
  307DMF     H5 4171   3.170   2.940   3.210  0.2642 -1.5615 -0.4776
  307DMF     H6 4172   3.022   2.976   3.114  0.0356  0.3142  1.0764
  307DMF     H7 4173   3.233   2.680   3.215  0.0898  1.8327 -0.5664
   3.40320   3.43847   3.80000
