cutoff-scheme = Verlet
nstlist = 20
rlist = 1.0
coulombtype = PME
rcoulomb = 1.0
vdwtype = Cut-off
rvdw = 1.0
DispCorr = EnerPres
pbc = xyz
fourierspacing = 0.12
ewald-rtol = 1e-4
pme-order = 4
constraints = h-bonds
constraint-algorithm = lincs
lincs-order = 6
lincs-iter = 2
freezegrps = GRAPHENE
freezedim = Y Y Y
integrator = md
dt = 0.001
tcoupl = v-rescale
tc-grps = System
tau-t = 0.2
ref-t = 298.15
nstenergy = 1000
nstlog = 1000
nstxout-compressed = 1000
compressed-x-precision = 10000
gen-seed = 20261006
comm-mode = None
nsteps = 125000
pcoupl = no
gen-vel = no
continuation = yes

pull = yes
pull-ncoords = 1
pull-ngroups = 2
pull-group1-name = GRAPHENE
pull-group2-name = PMMA
pull-group1-pbcatom = 1
pull-group2-pbcatom = 462
pull-coord1-type = umbrella
pull-coord1-geometry = direction-periodic
pull-coord1-groups = 1 2
pull-coord1-dim = N N Y
pull-coord1-vec = 0 0 1
pull-coord1-start = no
pull-coord1-init = 1.350000000
pull-coord1-rate = 0.0
pull-coord1-k = 2000.000000000
pull-nstxout = 100
pull-nstfout = 100
