;
;   File molecule.top  was generated
;   By user: mattiaapicella (501)
;   On host:Mattias-MacBook-Pro.local 
;   At date:Tue. October  2 04:50:33 2026 
;
;   This is a standalone topology file
;
;   Created by:
;   ParmEd:       -c, VERSION4.3.1 
;   Executable:   -c
;   Library dir:  /usr/local/gromacs/share/gromacs/top
;   Command line:
;     -c
;

[ defaults ]
; nbfunc        comb-rule       gen-pairs       fudgeLJ fudgeQQ
1               2               yes             0.5          0.83333333  

[ atomtypes ]
; name    at.num    mass    charge ptype  sigma      epsilon
c3             6  12.010000  0.00000000  A     0.33977095      0.4510352
c              6  12.010000  0.00000000  A     0.33152123      0.4133792
o              8  16.000000  0.00000000  A     0.30481209      0.6121192
oh             8  16.000000  0.00000000  A     0.32428713       0.389112
hc             1   1.008000  0.00000000  A      0.2600177      0.0870272
ho             1   1.008000  0.00000000  A    0.053792465      0.0196648


[ moleculetype ]
; Name            nrexcl
ACE          3

[ atoms ]
;   nr       type  resnr residue  atom   cgnr    charge       mass  typeB    chargeB      massB
; residue    1 ACE rtp ACE q 0.0
    1         c3      1    ACE     C1      1 -0.14997500  12.010000   ; qtot -0.149975
    2          c      1    ACE     C2      2 0.63522500  12.010000   ; qtot 0.485250
    3          o      1    ACE     O1      3 -0.55187500  16.000000   ; qtot -0.066625
    4         oh      1    ACE     O2      4 -0.61097500  16.000000   ; qtot -0.677600
    5         hc      1    ACE     H1      5 0.07782500   1.008000   ; qtot -0.599775
    6         hc      1    ACE     H2      6 0.07782500   1.008000   ; qtot -0.521950
    7         hc      1    ACE     H3      7 0.07782500   1.008000   ; qtot -0.444125
    8         ho      1    ACE     H4      8 0.44412500   1.008000   ; qtot 0.000000

[ bonds ]
;    ai     aj funct         c0         c1         c2         c3
      1      2     1   0.15270 196522.480000
      2      3     1   0.12190 494214.080000
      2      4     1   0.13556 300637.136000
      1      5     1   0.10962 288905.200000
      1      6     1   0.10962 288905.200000
      1      7     1   0.10962 288905.200000
      4      8     1   0.09725 448114.768000

[ pairs ]
;    ai     aj funct         c0         c1         c2         c3
      1      8     1
      5      3     1
      6      3     1
      7      3     1
      3      8     1
      5      4     1
      6      4     1
      7      4     1

[ angles ]
;    ai     aj     ak funct         c0         c1         c2         c3
      1      2      3     1   122.9000527 639.733600
      1      2      4     1   112.7400482 647.850560
      3      2      4     1   122.0900525 853.787040
      2      1      5     1   108.9500470 365.095840
      2      1      6     1   108.9500470 365.095840
      2      1      7     1   108.9500470 365.095840
      2      4      8     1   106.5400455 572.873280
      5      1      6     1   107.7300462 299.574400
      5      1      7     1   107.7300462 299.574400
      6      1      7     1   107.7300462 299.574400

[ dihedrals ]
;    ai     aj     ak     al funct         c0         c1         c2         c3         c4         c5
      1      3      2      4     4  180.0000771  4.6024000  2
      1      2      4      8     1  180.0000771  7.5312000  2
      5      1      2      3     1  0.0000000  16.8615200  1
      5      1      2      3     1  180.0000771  15.3134400  2
      6      1      2      3     1  0.0000000  16.8615200  1
      6      1      2      3     1  180.0000771  15.3134400  2
      7      1      2      3     1  0.0000000  16.8615200  1
      7      1      2      3     1  180.0000771  15.3134400  2
      3      2      4      8     1  0.0000000  7.9496000  1
      3      2      4      8     1  180.0000771  9.6232000  2
      5      1      2      4     1  180.0000771  0.0000000  2
      6      1      2      4     1  180.0000771  0.0000000  2
      7      1      2      4     1  180.0000771  0.0000000  2

[ system ]
; Name
Generic title

[ molecules ]
; Compound       #mols
ACE                  1
