ACE
     8
  -0.9650000  -0.0130000  -0.0640000   0.5010000   0.3040000   0.0030000
   0.9910000   1.3970000  -0.0750000   1.2390000  -0.8040000   0.1650000
  -1.1470000  -0.6920000  -0.8930000  -1.5340000   0.9010000  -0.1950000
  -1.2650000  -0.5140000   0.8530000   2.1820000  -0.5800000   0.2060000
