GROningen MAchine for Chemical Simulation
    8
    1ACE     C1    1  -0.097  -0.001  -0.006
    1ACE     C2    2   0.050   0.030   0.000
    1ACE     O1    3   0.099   0.140  -0.007
    1ACE     O2    4   0.124  -0.080   0.017
    1ACE     H1    5  -0.115  -0.069  -0.089
    1ACE     H2    6  -0.153   0.090  -0.019
    1ACE     H3    7  -0.127  -0.051   0.085
    1ACE     H4    8   0.218  -0.058   0.021
   0.87160   0.72010   0.67460
