HFIP comparator n4
 3225
    1GR      C1    1   0.000   0.000   1.900  0.0000  0.0000  0.0000
    1GR      C2    2   0.142   0.000   1.900  0.0000  0.0000  0.0000
    1GR      C3    3   0.213   0.123   1.900  0.0000  0.0000  0.0000
    1GR      C4    4   0.354   0.123   1.900  0.0000  0.0000  0.0000
    1GR      C5    5   0.000   0.246   1.900  0.0000  0.0000  0.0000
    1GR      C6    6   0.142   0.246   1.900  0.0000  0.0000  0.0000
    1GR      C7    7   0.213   0.368   1.900  0.0000  0.0000  0.0000
    1GR      C8    8   0.354   0.368   1.900  0.0000  0.0000  0.0000
    1GR      C9    9   0.000   0.491   1.900  0.0000  0.0000  0.0000
    1GR     C10   10   0.142   0.491   1.900  0.0000  0.0000  0.0000
    1GR     C11   11   0.213   0.614   1.900  0.0000  0.0000  0.0000
    1GR     C12   12   0.354   0.614   1.900  0.0000  0.0000  0.0000
    1GR     C13   13   0.000   0.737   1.900  0.0000  0.0000  0.0000
    1GR     C14   14   0.142   0.737   1.900  0.0000  0.0000  0.0000
    1GR     C15   15   0.213   0.860   1.900  0.0000  0.0000  0.0000
    1GR     C16   16   0.354   0.860   1.900  0.0000  0.0000  0.0000
    1GR     C17   17   0.000   0.982   1.900  0.0000  0.0000  0.0000
    1GR     C18   18   0.142   0.982   1.900  0.0000  0.0000  0.0000
    1GR     C19   19   0.213   1.105   1.900  0.0000  0.0000  0.0000
    1GR     C20   20   0.354   1.105   1.900  0.0000  0.0000  0.0000
    1GR     C21   21   0.000   1.228   1.900  0.0000  0.0000  0.0000
    1GR     C22   22   0.142   1.228   1.900  0.0000  0.0000  0.0000
    1GR     C23   23   0.213   1.351   1.900  0.0000  0.0000  0.0000
    1GR     C24   24   0.354   1.351   1.900  0.0000  0.0000  0.0000
    1GR     C25   25   0.000   1.474   1.900  0.0000  0.0000  0.0000
    1GR     C26   26   0.142   1.474   1.900  0.0000  0.0000  0.0000
    1GR     C27   27   0.213   1.596   1.900  0.0000  0.0000  0.0000
    1GR     C28   28   0.354   1.596   1.900  0.0000  0.0000  0.0000
    1GR     C29   29   0.000   1.719   1.900  0.0000  0.0000  0.0000
    1GR     C30   30   0.142   1.719   1.900  0.0000  0.0000  0.0000
    1GR     C31   31   0.213   1.842   1.900  0.0000  0.0000  0.0000
    1GR     C32   32   0.354   1.842   1.900  0.0000  0.0000  0.0000
    1GR     C33   33   0.000   1.965   1.900  0.0000  0.0000  0.0000
    1GR     C34   34   0.142   1.965   1.900  0.0000  0.0000  0.0000
    1GR     C35   35   0.213   2.088   1.900  0.0000  0.0000  0.0000
    1GR     C36   36   0.354   2.088   1.900  0.0000  0.0000  0.0000
    1GR     C37   37   0.000   2.210   1.900  0.0000  0.0000  0.0000
    1GR     C38   38   0.142   2.210   1.900  0.0000  0.0000  0.0000
    1GR     C39   39   0.213   2.333   1.900  0.0000  0.0000  0.0000
    1GR     C40   40   0.354   2.333   1.900  0.0000  0.0000  0.0000
    1GR     C41   41   0.000   2.456   1.900  0.0000  0.0000  0.0000
    1GR     C42   42   0.142   2.456   1.900  0.0000  0.0000  0.0000
    1GR     C43   43   0.213   2.579   1.900  0.0000  0.0000  0.0000
    1GR     C44   44   0.354   2.579   1.900  0.0000  0.0000  0.0000
    1GR     C45   45   0.000   2.702   1.900  0.0000  0.0000  0.0000
    1GR     C46   46   0.142   2.702   1.900  0.0000  0.0000  0.0000
    1GR     C47   47   0.213   2.824   1.900  0.0000  0.0000  0.0000
    1GR     C48   48   0.354   2.824   1.900  0.0000  0.0000  0.0000
    1GR     C49   49   0.000   2.947   1.900  0.0000  0.0000  0.0000
    1GR     C50   50   0.142   2.947   1.900  0.0000  0.0000  0.0000
    1GR     C51   51   0.213   3.070   1.900  0.0000  0.0000  0.0000
    1GR     C52   52   0.354   3.070   1.900  0.0000  0.0000  0.0000
    1GR     C53   53   0.000   3.193   1.900  0.0000  0.0000  0.0000
    1GR     C54   54   0.142   3.193   1.900  0.0000  0.0000  0.0000
    1GR     C55   55   0.213   3.316   1.900  0.0000  0.0000  0.0000
    1GR     C56   56   0.354   3.316   1.900  0.0000  0.0000  0.0000
    1GR     C57   57   0.425   0.000   1.900  0.0000  0.0000  0.0000
    1GR     C58   58   0.567   0.000   1.900  0.0000  0.0000  0.0000
    1GR     C59   59   0.638   0.123   1.900  0.0000  0.0000  0.0000
    1GR     C60   60   0.780   0.123   1.900  0.0000  0.0000  0.0000
    1GR     C61   61   0.425   0.246   1.900  0.0000  0.0000  0.0000
    1GR     C62   62   0.567   0.246   1.900  0.0000  0.0000  0.0000
    1GR     C63   63   0.638   0.368   1.900  0.0000  0.0000  0.0000
    1GR     C64   64   0.780   0.368   1.900  0.0000  0.0000  0.0000
    1GR     C65   65   0.425   0.491   1.900  0.0000  0.0000  0.0000
    1GR     C66   66   0.567   0.491   1.900  0.0000  0.0000  0.0000
    1GR     C67   67   0.638   0.614   1.900  0.0000  0.0000  0.0000
    1GR     C68   68   0.780   0.614   1.900  0.0000  0.0000  0.0000
    1GR     C69   69   0.425   0.737   1.900  0.0000  0.0000  0.0000
    1GR     C70   70   0.567   0.737   1.900  0.0000  0.0000  0.0000
    1GR     C71   71   0.638   0.860   1.900  0.0000  0.0000  0.0000
    1GR     C72   72   0.780   0.860   1.900  0.0000  0.0000  0.0000
    1GR     C73   73   0.425   0.982   1.900  0.0000  0.0000  0.0000
    1GR     C74   74   0.567   0.982   1.900  0.0000  0.0000  0.0000
    1GR     C75   75   0.638   1.105   1.900  0.0000  0.0000  0.0000
    1GR     C76   76   0.780   1.105   1.900  0.0000  0.0000  0.0000
    1GR     C77   77   0.425   1.228   1.900  0.0000  0.0000  0.0000
    1GR     C78   78   0.567   1.228   1.900  0.0000  0.0000  0.0000
    1GR     C79   79   0.638   1.351   1.900  0.0000  0.0000  0.0000
    1GR     C80   80   0.780   1.351   1.900  0.0000  0.0000  0.0000
    1GR     C81   81   0.425   1.474   1.900  0.0000  0.0000  0.0000
    1GR     C82   82   0.567   1.474   1.900  0.0000  0.0000  0.0000
    1GR     C83   83   0.638   1.596   1.900  0.0000  0.0000  0.0000
    1GR     C84   84   0.780   1.596   1.900  0.0000  0.0000  0.0000
    1GR     C85   85   0.425   1.719   1.900  0.0000  0.0000  0.0000
    1GR     C86   86   0.567   1.719   1.900  0.0000  0.0000  0.0000
    1GR     C87   87   0.638   1.842   1.900  0.0000  0.0000  0.0000
    1GR     C88   88   0.780   1.842   1.900  0.0000  0.0000  0.0000
    1GR     C89   89   0.425   1.965   1.900  0.0000  0.0000  0.0000
    1GR     C90   90   0.567   1.965   1.900  0.0000  0.0000  0.0000
    1GR     C91   91   0.638   2.088   1.900  0.0000  0.0000  0.0000
    1GR     C92   92   0.780   2.088   1.900  0.0000  0.0000  0.0000
    1GR     C93   93   0.425   2.210   1.900  0.0000  0.0000  0.0000
    1GR     C94   94   0.567   2.210   1.900  0.0000  0.0000  0.0000
    1GR     C95   95   0.638   2.333   1.900  0.0000  0.0000  0.0000
    1GR     C96   96   0.780   2.333   1.900  0.0000  0.0000  0.0000
    1GR     C97   97   0.425   2.456   1.900  0.0000  0.0000  0.0000
    1GR     C98   98   0.567   2.456   1.900  0.0000  0.0000  0.0000
    1GR     C99   99   0.638   2.579   1.900  0.0000  0.0000  0.0000
    1GR    C100  100   0.780   2.579   1.900  0.0000  0.0000  0.0000
    1GR    C101  101   0.425   2.702   1.900  0.0000  0.0000  0.0000
    1GR    C102  102   0.567   2.702   1.900  0.0000  0.0000  0.0000
    1GR    C103  103   0.638   2.824   1.900  0.0000  0.0000  0.0000
    1GR    C104  104   0.780   2.824   1.900  0.0000  0.0000  0.0000
    1GR    C105  105   0.425   2.947   1.900  0.0000  0.0000  0.0000
    1GR    C106  106   0.567   2.947   1.900  0.0000  0.0000  0.0000
    1GR    C107  107   0.638   3.070   1.900  0.0000  0.0000  0.0000
    1GR    C108  108   0.780   3.070   1.900  0.0000  0.0000  0.0000
    1GR    C109  109   0.425   3.193   1.900  0.0000  0.0000  0.0000
    1GR    C110  110   0.567   3.193   1.900  0.0000  0.0000  0.0000
    1GR    C111  111   0.638   3.316   1.900  0.0000  0.0000  0.0000
    1GR    C112  112   0.780   3.316   1.900  0.0000  0.0000  0.0000
    1GR    C113  113   0.851   0.000   1.900  0.0000  0.0000  0.0000
    1GR    C114  114   0.993   0.000   1.900  0.0000  0.0000  0.0000
    1GR    C115  115   1.064   0.123   1.900  0.0000  0.0000  0.0000
    1GR    C116  116   1.205   0.123   1.900  0.0000  0.0000  0.0000
    1GR    C117  117   0.851   0.246   1.900  0.0000  0.0000  0.0000
    1GR    C118  118   0.993   0.246   1.900  0.0000  0.0000  0.0000
    1GR    C119  119   1.064   0.368   1.900  0.0000  0.0000  0.0000
    1GR    C120  120   1.205   0.368   1.900  0.0000  0.0000  0.0000
    1GR    C121  121   0.851   0.491   1.900  0.0000  0.0000  0.0000
    1GR    C122  122   0.993   0.491   1.900  0.0000  0.0000  0.0000
    1GR    C123  123   1.064   0.614   1.900  0.0000  0.0000  0.0000
    1GR    C124  124   1.205   0.614   1.900  0.0000  0.0000  0.0000
    1GR    C125  125   0.851   0.737   1.900  0.0000  0.0000  0.0000
    1GR    C126  126   0.993   0.737   1.900  0.0000  0.0000  0.0000
    1GR    C127  127   1.064   0.860   1.900  0.0000  0.0000  0.0000
    1GR    C128  128   1.205   0.860   1.900  0.0000  0.0000  0.0000
    1GR    C129  129   0.851   0.982   1.900  0.0000  0.0000  0.0000
    1GR    C130  130   0.993   0.982   1.900  0.0000  0.0000  0.0000
    1GR    C131  131   1.064   1.105   1.900  0.0000  0.0000  0.0000
    1GR    C132  132   1.205   1.105   1.900  0.0000  0.0000  0.0000
    1GR    C133  133   0.851   1.228   1.900  0.0000  0.0000  0.0000
    1GR    C134  134   0.993   1.228   1.900  0.0000  0.0000  0.0000
    1GR    C135  135   1.064   1.351   1.900  0.0000  0.0000  0.0000
    1GR    C136  136   1.205   1.351   1.900  0.0000  0.0000  0.0000
    1GR    C137  137   0.851   1.474   1.900  0.0000  0.0000  0.0000
    1GR    C138  138   0.993   1.474   1.900  0.0000  0.0000  0.0000
    1GR    C139  139   1.064   1.596   1.900  0.0000  0.0000  0.0000
    1GR    C140  140   1.205   1.596   1.900  0.0000  0.0000  0.0000
    1GR    C141  141   0.851   1.719   1.900  0.0000  0.0000  0.0000
    1GR    C142  142   0.993   1.719   1.900  0.0000  0.0000  0.0000
    1GR    C143  143   1.064   1.842   1.900  0.0000  0.0000  0.0000
    1GR    C144  144   1.205   1.842   1.900  0.0000  0.0000  0.0000
    1GR    C145  145   0.851   1.965   1.900  0.0000  0.0000  0.0000
    1GR    C146  146   0.993   1.965   1.900  0.0000  0.0000  0.0000
    1GR    C147  147   1.064   2.088   1.900  0.0000  0.0000  0.0000
    1GR    C148  148   1.205   2.088   1.900  0.0000  0.0000  0.0000
    1GR    C149  149   0.851   2.210   1.900  0.0000  0.0000  0.0000
    1GR    C150  150   0.993   2.210   1.900  0.0000  0.0000  0.0000
    1GR    C151  151   1.064   2.333   1.900  0.0000  0.0000  0.0000
    1GR    C152  152   1.205   2.333   1.900  0.0000  0.0000  0.0000
    1GR    C153  153   0.851   2.456   1.900  0.0000  0.0000  0.0000
    1GR    C154  154   0.993   2.456   1.900  0.0000  0.0000  0.0000
    1GR    C155  155   1.064   2.579   1.900  0.0000  0.0000  0.0000
    1GR    C156  156   1.205   2.579   1.900  0.0000  0.0000  0.0000
    1GR    C157  157   0.851   2.702   1.900  0.0000  0.0000  0.0000
    1GR    C158  158   0.993   2.702   1.900  0.0000  0.0000  0.0000
    1GR    C159  159   1.064   2.824   1.900  0.0000  0.0000  0.0000
    1GR    C160  160   1.205   2.824   1.900  0.0000  0.0000  0.0000
    1GR    C161  161   0.851   2.947   1.900  0.0000  0.0000  0.0000
    1GR    C162  162   0.993   2.947   1.900  0.0000  0.0000  0.0000
    1GR    C163  163   1.064   3.070   1.900  0.0000  0.0000  0.0000
    1GR    C164  164   1.205   3.070   1.900  0.0000  0.0000  0.0000
    1GR    C165  165   0.851   3.193   1.900  0.0000  0.0000  0.0000
    1GR    C166  166   0.993   3.193   1.900  0.0000  0.0000  0.0000
    1GR    C167  167   1.064   3.316   1.900  0.0000  0.0000  0.0000
    1GR    C168  168   1.205   3.316   1.900  0.0000  0.0000  0.0000
    1GR    C169  169   1.276   0.000   1.900  0.0000  0.0000  0.0000
    1GR    C170  170   1.418   0.000   1.900  0.0000  0.0000  0.0000
    1GR    C171  171   1.489   0.123   1.900  0.0000  0.0000  0.0000
    1GR    C172  172   1.631   0.123   1.900  0.0000  0.0000  0.0000
    1GR    C173  173   1.276   0.246   1.900  0.0000  0.0000  0.0000
    1GR    C174  174   1.418   0.246   1.900  0.0000  0.0000  0.0000
    1GR    C175  175   1.489   0.368   1.900  0.0000  0.0000  0.0000
    1GR    C176  176   1.631   0.368   1.900  0.0000  0.0000  0.0000
    1GR    C177  177   1.276   0.491   1.900  0.0000  0.0000  0.0000
    1GR    C178  178   1.418   0.491   1.900  0.0000  0.0000  0.0000
    1GR    C179  179   1.489   0.614   1.900  0.0000  0.0000  0.0000
    1GR    C180  180   1.631   0.614   1.900  0.0000  0.0000  0.0000
    1GR    C181  181   1.276   0.737   1.900  0.0000  0.0000  0.0000
    1GR    C182  182   1.418   0.737   1.900  0.0000  0.0000  0.0000
    1GR    C183  183   1.489   0.860   1.900  0.0000  0.0000  0.0000
    1GR    C184  184   1.631   0.860   1.900  0.0000  0.0000  0.0000
    1GR    C185  185   1.276   0.982   1.900  0.0000  0.0000  0.0000
    1GR    C186  186   1.418   0.982   1.900  0.0000  0.0000  0.0000
    1GR    C187  187   1.489   1.105   1.900  0.0000  0.0000  0.0000
    1GR    C188  188   1.631   1.105   1.900  0.0000  0.0000  0.0000
    1GR    C189  189   1.276   1.228   1.900  0.0000  0.0000  0.0000
    1GR    C190  190   1.418   1.228   1.900  0.0000  0.0000  0.0000
    1GR    C191  191   1.489   1.351   1.900  0.0000  0.0000  0.0000
    1GR    C192  192   1.631   1.351   1.900  0.0000  0.0000  0.0000
    1GR    C193  193   1.276   1.474   1.900  0.0000  0.0000  0.0000
    1GR    C194  194   1.418   1.474   1.900  0.0000  0.0000  0.0000
    1GR    C195  195   1.489   1.596   1.900  0.0000  0.0000  0.0000
    1GR    C196  196   1.631   1.596   1.900  0.0000  0.0000  0.0000
    1GR    C197  197   1.276   1.719   1.900  0.0000  0.0000  0.0000
    1GR    C198  198   1.418   1.719   1.900  0.0000  0.0000  0.0000
    1GR    C199  199   1.489   1.842   1.900  0.0000  0.0000  0.0000
    1GR    C200  200   1.631   1.842   1.900  0.0000  0.0000  0.0000
    1GR    C201  201   1.276   1.965   1.900  0.0000  0.0000  0.0000
    1GR    C202  202   1.418   1.965   1.900  0.0000  0.0000  0.0000
    1GR    C203  203   1.489   2.088   1.900  0.0000  0.0000  0.0000
    1GR    C204  204   1.631   2.088   1.900  0.0000  0.0000  0.0000
    1GR    C205  205   1.276   2.210   1.900  0.0000  0.0000  0.0000
    1GR    C206  206   1.418   2.210   1.900  0.0000  0.0000  0.0000
    1GR    C207  207   1.489   2.333   1.900  0.0000  0.0000  0.0000
    1GR    C208  208   1.631   2.333   1.900  0.0000  0.0000  0.0000
    1GR    C209  209   1.276   2.456   1.900  0.0000  0.0000  0.0000
    1GR    C210  210   1.418   2.456   1.900  0.0000  0.0000  0.0000
    1GR    C211  211   1.489   2.579   1.900  0.0000  0.0000  0.0000
    1GR    C212  212   1.631   2.579   1.900  0.0000  0.0000  0.0000
    1GR    C213  213   1.276   2.702   1.900  0.0000  0.0000  0.0000
    1GR    C214  214   1.418   2.702   1.900  0.0000  0.0000  0.0000
    1GR    C215  215   1.489   2.824   1.900  0.0000  0.0000  0.0000
    1GR    C216  216   1.631   2.824   1.900  0.0000  0.0000  0.0000
    1GR    C217  217   1.276   2.947   1.900  0.0000  0.0000  0.0000
    1GR    C218  218   1.418   2.947   1.900  0.0000  0.0000  0.0000
    1GR    C219  219   1.489   3.070   1.900  0.0000  0.0000  0.0000
    1GR    C220  220   1.631   3.070   1.900  0.0000  0.0000  0.0000
    1GR    C221  221   1.276   3.193   1.900  0.0000  0.0000  0.0000
    1GR    C222  222   1.418   3.193   1.900  0.0000  0.0000  0.0000
    1GR    C223  223   1.489   3.316   1.900  0.0000  0.0000  0.0000
    1GR    C224  224   1.631   3.316   1.900  0.0000  0.0000  0.0000
    1GR    C225  225   1.702   0.000   1.900  0.0000  0.0000  0.0000
    1GR    C226  226   1.843   0.000   1.900  0.0000  0.0000  0.0000
    1GR    C227  227   1.914   0.123   1.900  0.0000  0.0000  0.0000
    1GR    C228  228   2.056   0.123   1.900  0.0000  0.0000  0.0000
    1GR    C229  229   1.702   0.246   1.900  0.0000  0.0000  0.0000
    1GR    C230  230   1.843   0.246   1.900  0.0000  0.0000  0.0000
    1GR    C231  231   1.914   0.368   1.900  0.0000  0.0000  0.0000
    1GR    C232  232   2.056   0.368   1.900  0.0000  0.0000  0.0000
    1GR    C233  233   1.702   0.491   1.900  0.0000  0.0000  0.0000
    1GR    C234  234   1.843   0.491   1.900  0.0000  0.0000  0.0000
    1GR    C235  235   1.914   0.614   1.900  0.0000  0.0000  0.0000
    1GR    C236  236   2.056   0.614   1.900  0.0000  0.0000  0.0000
    1GR    C237  237   1.702   0.737   1.900  0.0000  0.0000  0.0000
    1GR    C238  238   1.843   0.737   1.900  0.0000  0.0000  0.0000
    1GR    C239  239   1.914   0.860   1.900  0.0000  0.0000  0.0000
    1GR    C240  240   2.056   0.860   1.900  0.0000  0.0000  0.0000
    1GR    C241  241   1.702   0.982   1.900  0.0000  0.0000  0.0000
    1GR    C242  242   1.843   0.982   1.900  0.0000  0.0000  0.0000
    1GR    C243  243   1.914   1.105   1.900  0.0000  0.0000  0.0000
    1GR    C244  244   2.056   1.105   1.900  0.0000  0.0000  0.0000
    1GR    C245  245   1.702   1.228   1.900  0.0000  0.0000  0.0000
    1GR    C246  246   1.843   1.228   1.900  0.0000  0.0000  0.0000
    1GR    C247  247   1.914   1.351   1.900  0.0000  0.0000  0.0000
    1GR    C248  248   2.056   1.351   1.900  0.0000  0.0000  0.0000
    1GR    C249  249   1.702   1.474   1.900  0.0000  0.0000  0.0000
    1GR    C250  250   1.843   1.474   1.900  0.0000  0.0000  0.0000
    1GR    C251  251   1.914   1.596   1.900  0.0000  0.0000  0.0000
    1GR    C252  252   2.056   1.596   1.900  0.0000  0.0000  0.0000
    1GR    C253  253   1.702   1.719   1.900  0.0000  0.0000  0.0000
    1GR    C254  254   1.843   1.719   1.900  0.0000  0.0000  0.0000
    1GR    C255  255   1.914   1.842   1.900  0.0000  0.0000  0.0000
    1GR    C256  256   2.056   1.842   1.900  0.0000  0.0000  0.0000
    1GR    C257  257   1.702   1.965   1.900  0.0000  0.0000  0.0000
    1GR    C258  258   1.843   1.965   1.900  0.0000  0.0000  0.0000
    1GR    C259  259   1.914   2.088   1.900  0.0000  0.0000  0.0000
    1GR    C260  260   2.056   2.088   1.900  0.0000  0.0000  0.0000
    1GR    C261  261   1.702   2.210   1.900  0.0000  0.0000  0.0000
    1GR    C262  262   1.843   2.210   1.900  0.0000  0.0000  0.0000
    1GR    C263  263   1.914   2.333   1.900  0.0000  0.0000  0.0000
    1GR    C264  264   2.056   2.333   1.900  0.0000  0.0000  0.0000
    1GR    C265  265   1.702   2.456   1.900  0.0000  0.0000  0.0000
    1GR    C266  266   1.843   2.456   1.900  0.0000  0.0000  0.0000
    1GR    C267  267   1.914   2.579   1.900  0.0000  0.0000  0.0000
    1GR    C268  268   2.056   2.579   1.900  0.0000  0.0000  0.0000
    1GR    C269  269   1.702   2.702   1.900  0.0000  0.0000  0.0000
    1GR    C270  270   1.843   2.702   1.900  0.0000  0.0000  0.0000
    1GR    C271  271   1.914   2.824   1.900  0.0000  0.0000  0.0000
    1GR    C272  272   2.056   2.824   1.900  0.0000  0.0000  0.0000
    1GR    C273  273   1.702   2.947   1.900  0.0000  0.0000  0.0000
    1GR    C274  274   1.843   2.947   1.900  0.0000  0.0000  0.0000
    1GR    C275  275   1.914   3.070   1.900  0.0000  0.0000  0.0000
    1GR    C276  276   2.056   3.070   1.900  0.0000  0.0000  0.0000
    1GR    C277  277   1.702   3.193   1.900  0.0000  0.0000  0.0000
    1GR    C278  278   1.843   3.193   1.900  0.0000  0.0000  0.0000
    1GR    C279  279   1.914   3.316   1.900  0.0000  0.0000  0.0000
    1GR    C280  280   2.056   3.316   1.900  0.0000  0.0000  0.0000
    1GR    C281  281   2.127   0.000   1.900  0.0000  0.0000  0.0000
    1GR    C282  282   2.269   0.000   1.900  0.0000  0.0000  0.0000
    1GR    C283  283   2.340   0.123   1.900  0.0000  0.0000  0.0000
    1GR    C284  284   2.481   0.123   1.900  0.0000  0.0000  0.0000
    1GR    C285  285   2.127   0.246   1.900  0.0000  0.0000  0.0000
    1GR    C286  286   2.269   0.246   1.900  0.0000  0.0000  0.0000
    1GR    C287  287   2.340   0.368   1.900  0.0000  0.0000  0.0000
    1GR    C288  288   2.481   0.368   1.900  0.0000  0.0000  0.0000
    1GR    C289  289   2.127   0.491   1.900  0.0000  0.0000  0.0000
    1GR    C290  290   2.269   0.491   1.900  0.0000  0.0000  0.0000
    1GR    C291  291   2.340   0.614   1.900  0.0000  0.0000  0.0000
    1GR    C292  292   2.481   0.614   1.900  0.0000  0.0000  0.0000
    1GR    C293  293   2.127   0.737   1.900  0.0000  0.0000  0.0000
    1GR    C294  294   2.269   0.737   1.900  0.0000  0.0000  0.0000
    1GR    C295  295   2.340   0.860   1.900  0.0000  0.0000  0.0000
    1GR    C296  296   2.481   0.860   1.900  0.0000  0.0000  0.0000
    1GR    C297  297   2.127   0.982   1.900  0.0000  0.0000  0.0000
    1GR    C298  298   2.269   0.982   1.900  0.0000  0.0000  0.0000
    1GR    C299  299   2.340   1.105   1.900  0.0000  0.0000  0.0000
    1GR    C300  300   2.481   1.105   1.900  0.0000  0.0000  0.0000
    1GR    C301  301   2.127   1.228   1.900  0.0000  0.0000  0.0000
    1GR    C302  302   2.269   1.228   1.900  0.0000  0.0000  0.0000
    1GR    C303  303   2.340   1.351   1.900  0.0000  0.0000  0.0000
    1GR    C304  304   2.481   1.351   1.900  0.0000  0.0000  0.0000
    1GR    C305  305   2.127   1.474   1.900  0.0000  0.0000  0.0000
    1GR    C306  306   2.269   1.474   1.900  0.0000  0.0000  0.0000
    1GR    C307  307   2.340   1.596   1.900  0.0000  0.0000  0.0000
    1GR    C308  308   2.481   1.596   1.900  0.0000  0.0000  0.0000
    1GR    C309  309   2.127   1.719   1.900  0.0000  0.0000  0.0000
    1GR    C310  310   2.269   1.719   1.900  0.0000  0.0000  0.0000
    1GR    C311  311   2.340   1.842   1.900  0.0000  0.0000  0.0000
    1GR    C312  312   2.481   1.842   1.900  0.0000  0.0000  0.0000
    1GR    C313  313   2.127   1.965   1.900  0.0000  0.0000  0.0000
    1GR    C314  314   2.269   1.965   1.900  0.0000  0.0000  0.0000
    1GR    C315  315   2.340   2.088   1.900  0.0000  0.0000  0.0000
    1GR    C316  316   2.481   2.088   1.900  0.0000  0.0000  0.0000
    1GR    C317  317   2.127   2.210   1.900  0.0000  0.0000  0.0000
    1GR    C318  318   2.269   2.210   1.900  0.0000  0.0000  0.0000
    1GR    C319  319   2.340   2.333   1.900  0.0000  0.0000  0.0000
    1GR    C320  320   2.481   2.333   1.900  0.0000  0.0000  0.0000
    1GR    C321  321   2.127   2.456   1.900  0.0000  0.0000  0.0000
    1GR    C322  322   2.269   2.456   1.900  0.0000  0.0000  0.0000
    1GR    C323  323   2.340   2.579   1.900  0.0000  0.0000  0.0000
    1GR    C324  324   2.481   2.579   1.900  0.0000  0.0000  0.0000
    1GR    C325  325   2.127   2.702   1.900  0.0000  0.0000  0.0000
    1GR    C326  326   2.269   2.702   1.900  0.0000  0.0000  0.0000
    1GR    C327  327   2.340   2.824   1.900  0.0000  0.0000  0.0000
    1GR    C328  328   2.481   2.824   1.900  0.0000  0.0000  0.0000
    1GR    C329  329   2.127   2.947   1.900  0.0000  0.0000  0.0000
    1GR    C330  330   2.269   2.947   1.900  0.0000  0.0000  0.0000
    1GR    C331  331   2.340   3.070   1.900  0.0000  0.0000  0.0000
    1GR    C332  332   2.481   3.070   1.900  0.0000  0.0000  0.0000
    1GR    C333  333   2.127   3.193   1.900  0.0000  0.0000  0.0000
    1GR    C334  334   2.269   3.193   1.900  0.0000  0.0000  0.0000
    1GR    C335  335   2.340   3.316   1.900  0.0000  0.0000  0.0000
    1GR    C336  336   2.481   3.316   1.900  0.0000  0.0000  0.0000
    1GR    C337  337   2.552   0.000   1.900  0.0000  0.0000  0.0000
    1GR    C338  338   2.694   0.000   1.900  0.0000  0.0000  0.0000
    1GR    C339  339   2.765   0.123   1.900  0.0000  0.0000  0.0000
    1GR    C340  340   2.907   0.123   1.900  0.0000  0.0000  0.0000
    1GR    C341  341   2.552   0.246   1.900  0.0000  0.0000  0.0000
    1GR    C342  342   2.694   0.246   1.900  0.0000  0.0000  0.0000
    1GR    C343  343   2.765   0.368   1.900  0.0000  0.0000  0.0000
    1GR    C344  344   2.907   0.368   1.900  0.0000  0.0000  0.0000
    1GR    C345  345   2.552   0.491   1.900  0.0000  0.0000  0.0000
    1GR    C346  346   2.694   0.491   1.900  0.0000  0.0000  0.0000
    1GR    C347  347   2.765   0.614   1.900  0.0000  0.0000  0.0000
    1GR    C348  348   2.907   0.614   1.900  0.0000  0.0000  0.0000
    1GR    C349  349   2.552   0.737   1.900  0.0000  0.0000  0.0000
    1GR    C350  350   2.694   0.737   1.900  0.0000  0.0000  0.0000
    1GR    C351  351   2.765   0.860   1.900  0.0000  0.0000  0.0000
    1GR    C352  352   2.907   0.860   1.900  0.0000  0.0000  0.0000
    1GR    C353  353   2.552   0.982   1.900  0.0000  0.0000  0.0000
    1GR    C354  354   2.694   0.982   1.900  0.0000  0.0000  0.0000
    1GR    C355  355   2.765   1.105   1.900  0.0000  0.0000  0.0000
    1GR    C356  356   2.907   1.105   1.900  0.0000  0.0000  0.0000
    1GR    C357  357   2.552   1.228   1.900  0.0000  0.0000  0.0000
    1GR    C358  358   2.694   1.228   1.900  0.0000  0.0000  0.0000
    1GR    C359  359   2.765   1.351   1.900  0.0000  0.0000  0.0000
    1GR    C360  360   2.907   1.351   1.900  0.0000  0.0000  0.0000
    1GR    C361  361   2.552   1.474   1.900  0.0000  0.0000  0.0000
    1GR    C362  362   2.694   1.474   1.900  0.0000  0.0000  0.0000
    1GR    C363  363   2.765   1.596   1.900  0.0000  0.0000  0.0000
    1GR    C364  364   2.907   1.596   1.900  0.0000  0.0000  0.0000
    1GR    C365  365   2.552   1.719   1.900  0.0000  0.0000  0.0000
    1GR    C366  366   2.694   1.719   1.900  0.0000  0.0000  0.0000
    1GR    C367  367   2.765   1.842   1.900  0.0000  0.0000  0.0000
    1GR    C368  368   2.907   1.842   1.900  0.0000  0.0000  0.0000
    1GR    C369  369   2.552   1.965   1.900  0.0000  0.0000  0.0000
    1GR    C370  370   2.694   1.965   1.900  0.0000  0.0000  0.0000
    1GR    C371  371   2.765   2.088   1.900  0.0000  0.0000  0.0000
    1GR    C372  372   2.907   2.088   1.900  0.0000  0.0000  0.0000
    1GR    C373  373   2.552   2.210   1.900  0.0000  0.0000  0.0000
    1GR    C374  374   2.694   2.210   1.900  0.0000  0.0000  0.0000
    1GR    C375  375   2.765   2.333   1.900  0.0000  0.0000  0.0000
    1GR    C376  376   2.907   2.333   1.900  0.0000  0.0000  0.0000
    1GR    C377  377   2.552   2.456   1.900  0.0000  0.0000  0.0000
    1GR    C378  378   2.694   2.456   1.900  0.0000  0.0000  0.0000
    1GR    C379  379   2.765   2.579   1.900  0.0000  0.0000  0.0000
    1GR    C380  380   2.907   2.579   1.900  0.0000  0.0000  0.0000
    1GR    C381  381   2.552   2.702   1.900  0.0000  0.0000  0.0000
    1GR    C382  382   2.694   2.702   1.900  0.0000  0.0000  0.0000
    1GR    C383  383   2.765   2.824   1.900  0.0000  0.0000  0.0000
    1GR    C384  384   2.907   2.824   1.900  0.0000  0.0000  0.0000
    1GR    C385  385   2.552   2.947   1.900  0.0000  0.0000  0.0000
    1GR    C386  386   2.694   2.947   1.900  0.0000  0.0000  0.0000
    1GR    C387  387   2.765   3.070   1.900  0.0000  0.0000  0.0000
    1GR    C388  388   2.907   3.070   1.900  0.0000  0.0000  0.0000
    1GR    C389  389   2.552   3.193   1.900  0.0000  0.0000  0.0000
    1GR    C390  390   2.694   3.193   1.900  0.0000  0.0000  0.0000
    1GR    C391  391   2.765   3.316   1.900  0.0000  0.0000  0.0000
    1GR    C392  392   2.907   3.316   1.900  0.0000  0.0000  0.0000
    1GR    C393  393   2.978   0.000   1.900  0.0000  0.0000  0.0000
    1GR    C394  394   3.120   0.000   1.900  0.0000  0.0000  0.0000
    1GR    C395  395   3.191   0.123   1.900  0.0000  0.0000  0.0000
    1GR    C396  396   3.332   0.123   1.900  0.0000  0.0000  0.0000
    1GR    C397  397   2.978   0.246   1.900  0.0000  0.0000  0.0000
    1GR    C398  398   3.120   0.246   1.900  0.0000  0.0000  0.0000
    1GR    C399  399   3.191   0.368   1.900  0.0000  0.0000  0.0000
    1GR    C400  400   3.332   0.368   1.900  0.0000  0.0000  0.0000
    1GR    C401  401   2.978   0.491   1.900  0.0000  0.0000  0.0000
    1GR    C402  402   3.120   0.491   1.900  0.0000  0.0000  0.0000
    1GR    C403  403   3.191   0.614   1.900  0.0000  0.0000  0.0000
    1GR    C404  404   3.332   0.614   1.900  0.0000  0.0000  0.0000
    1GR    C405  405   2.978   0.737   1.900  0.0000  0.0000  0.0000
    1GR    C406  406   3.120   0.737   1.900  0.0000  0.0000  0.0000
    1GR    C407  407   3.191   0.860   1.900  0.0000  0.0000  0.0000
    1GR    C408  408   3.332   0.860   1.900  0.0000  0.0000  0.0000
    1GR    C409  409   2.978   0.982   1.900  0.0000  0.0000  0.0000
    1GR    C410  410   3.120   0.982   1.900  0.0000  0.0000  0.0000
    1GR    C411  411   3.191   1.105   1.900  0.0000  0.0000  0.0000
    1GR    C412  412   3.332   1.105   1.900  0.0000  0.0000  0.0000
    1GR    C413  413   2.978   1.228   1.900  0.0000  0.0000  0.0000
    1GR    C414  414   3.120   1.228   1.900  0.0000  0.0000  0.0000
    1GR    C415  415   3.191   1.351   1.900  0.0000  0.0000  0.0000
    1GR    C416  416   3.332   1.351   1.900  0.0000  0.0000  0.0000
    1GR    C417  417   2.978   1.474   1.900  0.0000  0.0000  0.0000
    1GR    C418  418   3.120   1.474   1.900  0.0000  0.0000  0.0000
    1GR    C419  419   3.191   1.596   1.900  0.0000  0.0000  0.0000
    1GR    C420  420   3.332   1.596   1.900  0.0000  0.0000  0.0000
    1GR    C421  421   2.978   1.719   1.900  0.0000  0.0000  0.0000
    1GR    C422  422   3.120   1.719   1.900  0.0000  0.0000  0.0000
    1GR    C423  423   3.191   1.842   1.900  0.0000  0.0000  0.0000
    1GR    C424  424   3.332   1.842   1.900  0.0000  0.0000  0.0000
    1GR    C425  425   2.978   1.965   1.900  0.0000  0.0000  0.0000
    1GR    C426  426   3.120   1.965   1.900  0.0000  0.0000  0.0000
    1GR    C427  427   3.191   2.088   1.900  0.0000  0.0000  0.0000
    1GR    C428  428   3.332   2.088   1.900  0.0000  0.0000  0.0000
    1GR    C429  429   2.978   2.210   1.900  0.0000  0.0000  0.0000
    1GR    C430  430   3.120   2.210   1.900  0.0000  0.0000  0.0000
    1GR    C431  431   3.191   2.333   1.900  0.0000  0.0000  0.0000
    1GR    C432  432   3.332   2.333   1.900  0.0000  0.0000  0.0000
    1GR    C433  433   2.978   2.456   1.900  0.0000  0.0000  0.0000
    1GR    C434  434   3.120   2.456   1.900  0.0000  0.0000  0.0000
    1GR    C435  435   3.191   2.579   1.900  0.0000  0.0000  0.0000
    1GR    C436  436   3.332   2.579   1.900  0.0000  0.0000  0.0000
    1GR    C437  437   2.978   2.702   1.900  0.0000  0.0000  0.0000
    1GR    C438  438   3.120   2.702   1.900  0.0000  0.0000  0.0000
    1GR    C439  439   3.191   2.824   1.900  0.0000  0.0000  0.0000
    1GR    C440  440   3.332   2.824   1.900  0.0000  0.0000  0.0000
    1GR    C441  441   2.978   2.947   1.900  0.0000  0.0000  0.0000
    1GR    C442  442   3.120   2.947   1.900  0.0000  0.0000  0.0000
    1GR    C443  443   3.191   3.070   1.900  0.0000  0.0000  0.0000
    1GR    C444  444   3.332   3.070   1.900  0.0000  0.0000  0.0000
    1GR    C445  445   2.978   3.193   1.900  0.0000  0.0000  0.0000
    1GR    C446  446   3.120   3.193   1.900  0.0000  0.0000  0.0000
    1GR    C447  447   3.191   3.316   1.900  0.0000  0.0000  0.0000
    1GR    C448  448   3.332   3.316   1.900  0.0000  0.0000  0.0000
    2PMMA   CX1  449   2.004   1.147   2.841 -0.0360  0.0307 -0.4688
    2PMMA   CA2  450   2.125   1.054   2.857  1.1067  0.1993 -0.3652
    2PMMA   CX3  451   2.240   1.115   2.767  0.0428  0.0412 -0.3746
    2PMMA    C4  452   2.157   1.067   3.006  0.1171 -0.3342 -0.6057
    2PMMA    O5  453   2.096   1.005   3.091 -0.0553  0.5657 -0.2019
    2PMMA   OS6  454   2.261   1.144   3.034  0.4881 -0.1173 -0.1100
    2PMMA   CE7  455   2.292   1.168   3.176  0.3092  0.0290  0.2081
    2PMMA   CX8  456   2.090   0.903   2.815  0.1847 -0.5605 -0.4877
    2PMMA   CA9  457   2.198   0.788   2.812  0.5454 -0.0641 -0.1150
    2PMMA  CX10  458   2.274   0.786   2.675  0.7699 -0.1827 -0.0845
    2PMMA   C11  459   2.117   0.659   2.820  0.1985  0.2986 -0.4274
    2PMMA   O12  460   2.114   0.576   2.732 -0.0181 -0.2569 -0.0683
    2PMMA  OS13  461   2.073   0.632   2.947  0.2263 -0.1064 -0.7673
    2PMMA  CE14  462   2.008   0.512   2.967 -0.9813 -0.0762  0.7763
    2PMMA  CX15  463   2.296   0.804   2.936  0.6695  0.6188 -0.2409
    2PMMA  CA16  464   2.413   0.708   2.991 -0.1808 -0.5679  0.1376
    2PMMA  CX17  465   2.471   0.794   3.110 -0.0722 -0.2008 -0.1490
    2PMMA   C18  466   2.361   0.573   3.043 -0.0168 -0.4711 -0.0912
    2PMMA   O19  467   2.346   0.556   3.162  0.3682  0.5296  0.4472
    2PMMA  OS20  468   2.343   0.479   2.946 -0.1672  0.2022 -0.7778
    2PMMA  CE21  469   2.305   0.349   2.969  0.7248  0.1715 -0.4030
    2PMMA  CX22  470   2.519   0.702   2.873  0.4836 -0.5003  0.7948
    2PMMA  CA23  471   2.665   0.637   2.873  0.1590 -0.8772 -0.7360
    2PMMA  CX24  472   2.657   0.489   2.917  0.1045 -0.2614 -0.2916
    2PMMA   C25  473   2.763   0.718   2.953  0.5046 -0.4618  0.2867
    2PMMA   O26  474   2.768   0.841   2.957 -0.1457  0.2532 -0.5955
    2PMMA  OS27  475   2.830   0.649   3.043 -0.2588 -0.2749 -0.3218
    2PMMA  CE28  476   2.905   0.713   3.145  0.0093  0.0608 -0.7199
    2PMMA  CX29  477   2.726   0.636   2.730  0.4008  0.7161  0.1030
    2PMMA  HC30  478   1.928   1.122   2.915  0.8389  0.4828  0.5885
    2PMMA  HC31  479   2.034   1.252   2.844  1.3690 -0.4038  1.2715
    2PMMA  HC32  480   1.964   1.134   2.740 -0.8448 -0.1394 -0.1281
    2PMMA  HC33  481   2.340   1.073   2.776 -0.6293 -1.7479 -1.0379
    2PMMA  HC34  482   2.251   1.223   2.786 -2.2483  0.0655  1.1639
    2PMMA  HC35  483   2.216   1.104   2.661 -2.5272 -1.5075  0.3370
    2PMMA  H136  484   2.368   1.247   3.173  0.8136 -0.4223  0.9611
    2PMMA  H137  485   2.334   1.083   3.228 -1.1261 -0.3470  0.7711
    2PMMA  H138  486   2.210   1.211   3.233 -1.2292 -1.4605 -0.8582
    2PMMA  HC39  487   1.997   0.882   2.870 -0.3351  5.7628  1.4709
    2PMMA  HC40  488   2.043   0.914   2.717 -1.3141 -2.1646  0.0273
    2PMMA  HC41  489   2.205   0.807   2.593  0.6652  1.0275  0.3080
    2PMMA  HC42  490   2.361   0.852   2.671  1.5604 -1.1525  0.7621
    2PMMA  HC43  491   2.316   0.688   2.650 -0.4878 -0.6967 -0.2340
    2PMMA  H144  492   1.988   0.490   3.072 -1.5762  1.2294  0.9512
    2PMMA  H145  493   2.067   0.431   2.924  0.7319  1.7174 -0.3655
    2PMMA  H146  494   1.908   0.516   2.922 -1.2017 -1.1065  1.1645
    2PMMA  HC47  495   2.336   0.904   2.918 -0.2833  1.0449 -0.0225
    2PMMA  HC48  496   2.235   0.817   3.026  1.0965  2.0585 -0.1479
    2PMMA  HC49  497   2.400   0.809   3.193 -0.2393 -0.5706 -0.2224
    2PMMA  HC50  498   2.492   0.896   3.078 -0.4507 -0.5482 -1.5086
    2PMMA  HC51  499   2.565   0.760   3.154 -0.5164  0.5450  1.4279
    2PMMA  H152  500   2.277   0.306   2.873 -2.0457  1.2103 -0.1012
    2PMMA  H153  501   2.221   0.349   3.038  0.7175 -0.2127 -0.4109
    2PMMA  H154  502   2.387   0.287   3.006  0.5252  0.1434 -0.0069
    2PMMA  HC55  503   2.481   0.648   2.785 -0.2329  2.2870 -0.6776
    2PMMA  HC56  504   2.524   0.799   2.822  0.2713 -0.7672  0.2536
    2PMMA  HC57  505   2.588   0.434   2.853 -0.7590 -1.2107  1.4403
    2PMMA  HC58  506   2.755   0.442   2.905  0.2831 -0.3481  1.4174
    2PMMA  HC59  507   2.617   0.455   3.013  1.9272 -1.5090  0.0466
    2PMMA  H160  508   2.954   0.798   3.098 -0.5195  2.1514  2.3203
    2PMMA  H161  509   2.970   0.640   3.193  0.1991  1.2818  0.9275
    2PMMA  H162  510   2.839   0.757   3.221  0.7829 -0.5345  0.3151
    2PMMA  HC63  511   2.824   0.588   2.727  1.2886  2.5143 -0.3656
    2PMMA  HC64  512   2.659   0.575   2.670  0.1708  0.1721  0.9020
    2PMMA  HC65  513   2.734   0.738   2.693  2.1023  0.2667 -0.8113
    3HFI     O1  514   0.661   1.780   0.714 -0.0036  0.8336  0.0230
    3HFI     C1  515   0.619   1.835   0.580 -0.3836  0.1203 -0.2372
    3HFI     C2  516   0.465   1.862   0.570  0.5184  0.2185  0.0506
    3HFI     F1  517   0.417   1.885   0.449  0.1911 -0.3845 -0.1553
    3HFI     F2  518   0.437   1.982   0.627  0.1732 -0.8062 -0.4503
    3HFI     F3  519   0.385   1.765   0.632 -0.1891 -0.2946 -0.5643
    3HFI     C3  520   0.666   1.742   0.461  0.1194 -0.2344  0.0889
    3HFI     F4  521   0.596   1.628   0.478  0.4009 -0.3554 -0.5611
    3HFI     F5  522   0.801   1.720   0.476  0.1271 -0.0615 -0.3651
    3HFI     F6  523   0.643   1.793   0.338  0.1795 -0.1102  0.1702
    3HFI     H1  524   0.581   1.783   0.770 -0.0068 -1.1557  0.1546
    3HFI     H2  525   0.667   1.927   0.545 -0.5951 -0.1056 -1.1238
    4HFI     O1  526   1.087   1.889   0.800 -0.0811  0.4198  0.6427
    4HFI     C1  527   0.987   1.775   0.814  0.4496  0.5416 -0.1110
    4HFI     C2  528   0.916   1.777   0.952  0.5638  0.3793 -0.5047
    4HFI     F1  529   0.837   1.671   0.965 -0.1133 -0.3676 -0.6140
    4HFI     F2  530   0.843   1.886   0.970  0.3044  0.4507  0.1732
    4HFI     F3  531   1.006   1.779   1.057  0.3834 -0.6251 -0.0488
    4HFI     C3  532   1.054   1.632   0.790 -0.3218  0.8265 -0.0018
    4HFI     F4  533   0.958   1.558   0.727  0.2663 -0.0127 -0.1699
    4HFI     F5  534   1.096   1.558   0.891 -0.2007  0.1385  0.1916
    4HFI     F6  535   1.162   1.645   0.704  0.3259 -0.0290  0.3377
    4HFI     H1  536   1.108   1.901   0.706  0.5103 -1.0776  0.5782
    4HFI     H2  537   0.904   1.782   0.744 -0.6390 -2.5382  0.7907
    5HFI     O1  538   1.588   1.427   3.698 -0.3043 -0.2840  0.4379
    5HFI     C1  539   1.477   1.367   3.754  0.0005 -0.0967 -0.3176
    5HFI     C2  540   1.501   1.238   3.838 -0.9128 -0.1605  0.1222
    5HFI     F1  541   1.394   1.221   3.920 -0.3358 -0.2168  0.3918
    5HFI     F2  542   1.615   1.256   3.908  0.7443 -0.2617  0.3937
    5HFI     F3  543   1.512   1.124   3.767  0.6116 -0.1351 -0.1681
    5HFI     C3  544   1.361   1.367   3.656 -0.4407  0.3224  0.2783
    5HFI     F4  545   1.351   1.493   3.600 -0.2704  0.0480 -0.1165
    5HFI     F5  546   1.250   1.331   3.719  0.0598 -0.6621  0.0744
    5HFI     F6  547   1.378   1.277   3.560  0.1574 -0.0990 -0.2095
    5HFI     H1  548   1.653   1.357   3.679 -0.7673 -1.0740  1.6653
    5HFI     H2  549   1.439   1.435   3.831  0.6800 -1.2459  1.0593
    6HFI     O1  550   0.386   1.261   0.074  0.0035  0.0286 -0.1661
    6HFI     C1  551   0.518   1.205   0.061 -0.1334 -0.6209  0.0167
    6HFI     C2  552   0.601   1.247   0.183 -0.1273  0.0434 -0.3892
    6HFI     F1  553   0.525   1.233   0.289  0.3409  0.1112  0.2531
    6HFI     F2  554   0.639   1.379   0.178  0.4046  0.0083 -0.6081
    6HFI     F3  555   0.711   1.164   0.207  0.3196  0.2816  0.0939
    6HFI     C3  556   0.587   1.237  -0.078  1.1435  0.3676 -0.0933
    6HFI     F4  557   0.522   1.175  -0.178 -0.6037 -0.0234 -0.6449
    6HFI     F5  558   0.718   1.191  -0.081 -0.2809 -0.0475  0.2844
    6HFI     F6  559   0.588   1.367  -0.109  0.7016  0.0107 -0.2041
    6HFI     H1  560   0.386   1.357   0.088  1.3002  0.1676 -1.0878
    6HFI     H2  561   0.511   1.095   0.067 -1.0479 -0.5514  0.3166
    7HFI     O1  562   0.883   2.152   3.736 -0.3959  0.0330 -0.5318
    7HFI     C1  563   1.004   2.222   3.689  0.8167  0.0623  0.4239
    7HFI     C2  564   1.131   2.132   3.686  0.1741  0.4201 -0.2501
    7HFI     F1  565   1.215   2.161   3.587 -0.2655  0.9871  0.0266
    7HFI     F2  566   1.100   2.003   3.672  0.3286 -0.0476 -0.0278
    7HFI     F3  567   1.195   2.145   3.802 -0.0327 -0.3633 -0.5159
    7HFI     C3  568   1.033   2.367   3.753 -0.4678  0.1664 -0.0734
    7HFI     F4  569   1.026   2.369   3.888 -0.0717  0.0070 -0.7065
    7HFI     F5  570   0.946   2.461   3.711  0.0877  0.2270 -0.5188
    7HFI     F6  571   1.150   2.420   3.702 -0.2231  0.1687 -0.4633
    7HFI     H1  572   0.810   2.217   3.731  0.5046  0.9812 -1.5031
    7HFI     H2  573   0.980   2.227   3.582 -1.0574 -1.9422  0.6958
    8HFI     O1  574   3.086   2.327   1.331 -0.2838  0.3548 -0.1789
    8HFI     C1  575   3.057   2.183   1.365  0.3455 -0.5429  0.2012
    8HFI     C2  576   3.073   2.149   1.517  0.2798  0.4394 -1.0298
    8HFI     F1  577   3.012   2.249   1.587  0.1380 -0.3597 -0.2653
    8HFI     F2  578   3.203   2.147   1.561 -0.2212  0.0781 -0.0354
    8HFI     F3  579   3.010   2.032   1.557 -0.0128  0.8352 -0.3354
    8HFI     C3  580   3.140   2.085   1.284 -0.2230 -0.4524  0.3274
    8HFI     F4  581   3.108   2.097   1.153  0.0244  0.0499 -0.0378
    8HFI     F5  582   3.127   1.954   1.329  0.1214 -0.4096  0.0846
    8HFI     F6  583   3.269   2.121   1.287 -0.3241 -0.1981 -0.8911
    8HFI     H1  584   3.182   2.336   1.326 -0.1708 -0.5037  0.3874
    8HFI     H2  585   2.952   2.160   1.343  0.2049 -0.8782  1.1760
    9HFI     O1  586   2.192   0.603   1.440 -0.7113 -0.2777 -0.2405
    9HFI     C1  587   2.313   0.592   1.519  0.5566 -0.3681 -0.0057
    9HFI     C2  588   2.416   0.699   1.482  0.4093  0.0998 -0.2556
    9HFI     F1  589   2.519   0.711   1.563 -0.5475  0.0703  0.2530
    9HFI     F2  590   2.349   0.820   1.481  0.6895 -0.0568 -0.0229
    9HFI     F3  591   2.461   0.673   1.353  0.6870  0.3529 -0.3440
    9HFI     C3  592   2.366   0.446   1.509  0.0214 -0.5151  0.7232
    9HFI     F4  593   2.475   0.435   1.579  0.0748  0.7682 -0.5436
    9HFI     F5  594   2.399   0.406   1.381 -0.2318  0.0626 -0.6538
    9HFI     F6  595   2.281   0.357   1.562  0.0853 -0.3598  0.0830
    9HFI     H1  596   2.176   0.699   1.436  3.8967  0.8269  3.0293
    9HFI     H2  597   2.295   0.614   1.625 -0.8766  1.6026 -0.6123
   10HFI     O1  598   0.685   2.290   3.389  0.4372 -0.0082 -0.4308
   10HFI     C1  599   0.721   2.207   3.277 -0.1040 -0.3551  0.3316
   10HFI     C2  600   0.621   2.229   3.156  0.5820  0.4424  0.1008
   10HFI     F1  601   0.513   2.153   3.165  0.2093 -0.3358 -0.2431
   10HFI     F2  602   0.674   2.188   3.041 -0.3270 -0.3978  0.7466
   10HFI     F3  603   0.595   2.362   3.136  0.0007 -0.4305 -0.6141
   10HFI     C3  604   0.732   2.060   3.320 -0.4269  0.1090  0.5955
   10HFI     F4  605   0.786   1.983   3.214 -0.4988  0.6634  0.2756
   10HFI     F5  606   0.617   2.007   3.371  0.3162  0.1871 -0.2417
   10HFI     F6  607   0.817   2.047   3.416 -0.3728  0.2982 -0.2970
   10HFI     H1  608   0.652   2.377   3.360 -0.4187 -1.0380 -2.6412
   10HFI     H2  609   0.822   2.232   3.241 -0.8504  0.8690 -0.9990
   11HFI     O1  610   2.978   0.943   1.013 -0.2853 -0.6321 -0.0469
   11HFI     C1  611   3.066   0.970   0.901 -0.2997 -0.3418  0.0199
   11HFI     C2  612   3.037   0.880   0.776 -0.8171  0.3762  0.0215
   11HFI     F1  613   3.087   0.749   0.809 -0.5470  0.0354 -0.4437
   11HFI     F2  614   3.104   0.921   0.665 -0.5868  0.4837  0.0168
   11HFI     F3  615   2.912   0.853   0.741  0.2299  0.8186 -0.2479
   11HFI     C3  616   3.214   0.963   0.953 -0.7962  0.2575  0.2064
   11HFI     F4  617   3.307   0.947   0.856 -0.0577  0.2523 -0.5549
   11HFI     F5  618   3.235   0.862   1.034 -0.6928 -0.2319  0.4796
   11HFI     F6  619   3.247   1.078   1.022  0.4391  0.2657 -0.1596
   11HFI     H1  620   3.002   0.854   1.044 -0.7953 -0.5571  0.5707
   11HFI     H2  621   3.051   1.074   0.870 -0.6302 -0.4877 -0.3147
   12HFI     O1  622   0.723   2.435   0.874  0.4988  0.2530  0.1470
   12HFI     C1  623   0.649   2.309   0.864 -0.5312  0.5784  0.0515
   12HFI     C2  624   0.632   2.232   1.007  0.4969 -1.1378 -0.4227
   12HFI     F1  625   0.752   2.206   1.069 -0.1333  0.5769  0.5079
   12HFI     F2  626   0.575   2.115   0.990  0.4057  0.4362  0.4409
   12HFI     F3  627   0.556   2.307   1.085 -0.2366  0.7370  0.0944
   12HFI     C3  628   0.728   2.222   0.769  0.0571 -0.0782  0.0780
   12HFI     F4  629   0.765   2.280   0.652  0.2841 -0.3857 -0.0090
   12HFI     F5  630   0.661   2.105   0.728 -0.1985 -0.0408 -0.5741
   12HFI     F6  631   0.850   2.181   0.816 -0.0481  0.0956 -0.3579
   12HFI     H1  632   0.780   2.434   0.953 -1.5904 -0.4675  1.6758
   12HFI     H2  633   0.550   2.335   0.825 -0.7775 -0.5451 -0.1087
   13HFI     O1  634   1.744   3.204   0.776 -0.2871  0.4763 -0.3689
   13HFI     C1  635   1.842   3.236   0.873  0.1881  0.6091  0.3906
   13HFI     C2  636   1.890   3.370   0.847  0.4454  0.5893 -0.2359
   13HFI     F1  637   1.962   3.425   0.950  0.2522  0.0136  0.4052
   13HFI     F2  638   1.788   3.461   0.824  0.0038 -0.5988 -0.3113
   13HFI     F3  639   1.965   3.378   0.730 -0.1786 -0.2954 -0.0162
   13HFI     C3  640   1.960   3.128   0.866  0.6291  0.0229 -0.8793
   13HFI     F4  641   2.056   3.170   0.952  0.0405  0.5163 -0.1238
   13HFI     F5  642   2.022   3.112   0.745  0.2222  0.5903 -0.0408
   13HFI     F6  643   1.924   3.002   0.912 -0.6453  0.0869  0.1858
   13HFI     H1  644   1.789   3.178   0.694  1.2309 -1.1275  0.9178
   13HFI     H2  645   1.798   3.236   0.973 -2.7621 -0.5619 -0.8548
   14HFI     O1  646   1.955   1.545   0.686 -0.1627  0.2971 -0.1733
   14HFI     C1  647   1.922   1.554   0.546 -0.1896  0.0878 -0.2959
   14HFI     C2  648   1.812   1.445   0.495  0.2170 -0.4795 -0.5631
   14HFI     F1  649   1.796   1.444   0.362  0.4560  0.1156 -0.4249
   14HFI     F2  650   1.691   1.469   0.552 -0.0080 -0.1852 -0.0798
   14HFI     F3  651   1.845   1.321   0.543 -0.0848  0.4965  0.6842
   14HFI     C3  652   2.057   1.534   0.467 -0.0345 -0.4660  0.0504
   14HFI     F4  653   2.051   1.568   0.332 -0.1873  0.3460 -0.4535
   14HFI     F5  654   2.103   1.410   0.484 -0.1885  0.3716  0.0563
   14HFI     F6  655   2.145   1.620   0.519 -0.1355 -0.0508  0.0035
   14HFI     H1  656   1.986   1.453   0.691 -1.8452 -0.4121 -1.9839
   14HFI     H2  657   1.889   1.656   0.520 -0.2180  0.4841  1.2686
   15HFI     O1  658   2.933   2.569   1.365  0.1834 -0.1300  0.4252
   15HFI     C1  659   3.007   2.686   1.377 -0.1674 -0.0449  0.0711
   15HFI     C2  660   3.147   2.676   1.295  0.9125 -0.1574 -0.3728
   15HFI     F1  661   3.121   2.665   1.156  0.1946  0.0100 -0.5463
   15HFI     F2  662   3.210   2.562   1.333 -0.2740 -0.2854  0.0900
   15HFI     F3  663   3.219   2.785   1.315 -0.3567 -0.9139  0.4134
   15HFI     C3  664   3.025   2.717   1.532 -1.1193 -0.2167 -0.2734
   15HFI     F4  665   3.077   2.603   1.592 -0.7750 -0.3270  0.2515
   15HFI     F5  666   2.903   2.747   1.579 -0.1994  0.1528 -0.2076
   15HFI     F6  667   3.105   2.831   1.560  0.1537  0.3503  0.7319
   15HFI     H1  668   3.000   2.499   1.359  1.3716  1.1557 -2.1755
   15HFI     H2  669   2.960   2.775   1.334 -0.7485 -0.7528 -0.7718
   16HFI     O1  670   1.414   2.941   0.576  0.4676 -0.2346  0.2530
   16HFI     C1  671   1.419   2.855   0.453 -0.2399  0.0484 -0.0886
   16HFI     C2  672   1.311   2.887   0.339  0.3384  0.1469  0.9194
   16HFI     F1  673   1.192   2.869   0.394 -0.3532  0.0095 -0.0904
   16HFI     F2  674   1.317   2.804   0.228  0.1498  0.2330  0.1047
   16HFI     F3  675   1.319   3.012   0.301  0.4470 -0.0301 -0.4503
   16HFI     C3  676   1.424   2.706   0.494 -0.0045  0.6737 -0.6355
   16HFI     F4  677   1.436   2.625   0.381  0.4169 -0.0155  0.1881
   16HFI     F5  678   1.314   2.662   0.576  0.3709  0.5236  0.0958
   16HFI     F6  679   1.534   2.686   0.565  0.4522 -0.1127 -0.5288
   16HFI     H1  680   1.366   3.022   0.553  3.1010  1.8946  1.8830
   16HFI     H2  681   1.519   2.873   0.412  0.6559 -0.9335  1.6556
   17HFI     O1  682   2.002   3.329   1.312  0.0810  0.5803  0.2740
   17HFI     C1  683   2.106   3.413   1.370  0.0848  0.5365  0.1940
   17HFI     C2  684   2.081   3.441   1.521  0.4003 -0.6101 -0.7352
   17HFI     F1  685   2.075   3.323   1.580  0.2175  0.3319 -0.3790
   17HFI     F2  686   1.960   3.507   1.544 -0.5238 -0.0345  0.0324
   17HFI     F3  687   2.175   3.511   1.586  0.3384  0.0981  0.3273
   17HFI     C3  688   2.147   3.539   1.291  0.7615  0.3953  0.3944
   17HFI     F4  689   2.057   3.632   1.286  0.3208  0.0846 -0.4942
   17HFI     F5  690   2.163   3.502   1.159  0.0461 -0.3750 -0.5923
   17HFI     F6  691   2.261   3.592   1.340 -0.6351 -0.3870  0.3184
   17HFI     H1  692   1.954   3.291   1.388  1.2694 -4.0850 -1.1141
   17HFI     H2  693   2.195   3.350   1.364 -0.7924 -0.6233 -0.7339
   18HFI     O1  694   2.670   3.374   0.212 -0.0165  0.3244 -0.3467
   18HFI     C1  695   2.784   3.432   0.140  0.6059  0.1684 -0.1450
   18HFI     C2  696   2.729   3.536   0.043 -0.4770 -0.2157 -0.6078
   18HFI     F1  697   2.663   3.477  -0.055  0.3876 -0.1404  0.2430
   18HFI     F2  698   2.818   3.607  -0.017 -0.5370 -0.5443  0.1066
   18HFI     F3  699   2.655   3.622   0.116  0.5102  0.2000 -0.5976
   18HFI     C3  700   2.879   3.325   0.078  1.0821 -0.0681 -0.4510
   18HFI     F4  701   2.797   3.238  -0.004  0.5000  0.0534 -0.1354
   18HFI     F5  702   2.945   3.243   0.157 -0.0004  0.1035  0.1706
   18HFI     F6  703   2.972   3.371  -0.007  0.6154 -0.2728 -0.5102
   18HFI     H1  704   2.600   3.338   0.155  0.8754  0.8706 -1.8127
   18HFI     H2  705   2.848   3.482   0.214  0.3576  0.8848 -0.4061
   19HFI     O1  706   2.575   1.481   0.385 -0.2689 -0.1927 -0.4286
   19HFI     C1  707   2.604   1.628   0.382 -0.0531  0.2076  0.1492
   19HFI     C2  708   2.751   1.664   0.413 -0.4151  0.0034 -0.1698
   19HFI     F1  709   2.768   1.793   0.424  0.2954  0.3339  0.3880
   19HFI     F2  710   2.834   1.617   0.322 -0.5496 -0.1081 -0.0928
   19HFI     F3  711   2.773   1.614   0.537  0.2261 -0.4361 -0.3909
   19HFI     C3  712   2.499   1.707   0.450  0.6941 -0.4727  0.4879
   19HFI     F4  713   2.477   1.666   0.577 -0.2509  0.3411 -0.4523
   19HFI     F5  714   2.384   1.694   0.385  0.2590  0.3329 -0.0908
   19HFI     F6  715   2.522   1.838   0.447 -0.7702  0.1864  0.5907
   19HFI     H1  716   2.580   1.444   0.475 -1.5967 -0.4637 -0.4637
   19HFI     H2  717   2.589   1.650   0.276  2.0694 -1.6259 -0.5737
   20HFI     O1  718   1.016   3.063   1.305 -0.8158 -0.4027 -0.2553
   20HFI     C1  719   1.144   3.085   1.381  0.2036 -0.1281 -0.0638
   20HFI     C2  720   1.142   2.993   1.509 -0.2924  0.8031 -0.6261
   20HFI     F1  721   1.168   2.871   1.464 -0.2593 -0.3118 -0.4633
   20HFI     F2  722   1.027   2.996   1.580 -0.3073 -0.0450 -0.0725
   20HFI     F3  723   1.237   3.025   1.596 -0.2504  0.9798 -0.2443
   20HFI     C3  724   1.160   3.240   1.412 -0.4527  0.0470 -0.4423
   20HFI     F4  725   1.063   3.292   1.490  0.2141  0.2035  0.7590
   20HFI     F5  726   1.164   3.315   1.303  0.5822  0.0863 -0.1089
   20HFI     F6  727   1.279   3.258   1.460  0.1155 -0.0494 -0.8070
   20HFI     H1  728   0.950   3.120   1.348  0.1195  0.2892  0.2868
   20HFI     H2  729   1.227   3.043   1.324  1.8196 -0.1945  2.2544
   21HFI     O1  730   2.151   0.861   0.699 -0.2028 -0.4132  0.4883
   21HFI     C1  731   2.056   0.905   0.802  0.5174 -0.1258  0.1665
   21HFI     C2  732   1.965   1.013   0.746 -0.7728 -0.1818 -0.2437
   21HFI     F1  733   2.031   1.133   0.739 -0.4244  0.3682  0.3664
   21HFI     F2  734   1.858   1.028   0.826  0.3898  0.1896  0.5513
   21HFI     F3  735   1.921   0.977   0.625  0.1780 -0.6171 -1.1302
   21HFI     C3  736   2.129   0.951   0.937 -0.0172  0.3656 -0.0853
   21HFI     F4  737   2.231   1.037   0.916 -0.0000  0.5074  0.7642
   21HFI     F5  738   2.191   0.841   0.994 -0.7145  0.2955  0.0686
   21HFI     F6  739   2.052   1.007   1.030  0.2075 -0.0267 -0.0414
   21HFI     H1  740   2.114   0.875   0.610  0.4762 -1.0816  0.1002
   21HFI     H2  741   1.996   0.818   0.831 -1.4871  1.1669  0.0003
   22HFI     O1  742   1.978   1.680   3.004 -0.4045  0.0292  0.1154
   22HFI     C1  743   2.122   1.710   2.965  0.2266 -0.4655 -0.1092
   22HFI     C2  744   2.213   1.584   2.945 -0.0751 -0.0438  0.6754
   22HFI     F1  745   2.323   1.612   2.872  0.0921  0.5460 -0.0074
   22HFI     F2  746   2.148   1.490   2.882 -0.0283 -0.4011  1.0432
   22HFI     F3  747   2.261   1.533   3.065  0.3209  0.1055  0.5603
   22HFI     C3  748   2.179   1.806   3.065 -0.1761 -0.0345  0.3773
   22HFI     F4  749   2.147   1.764   3.191 -0.3936 -0.1237 -0.4643
   22HFI     F5  750   2.126   1.926   3.050 -0.3636 -0.2291  0.0035
   22HFI     F6  751   2.318   1.814   3.059 -0.3142  0.1325 -0.0281
   22HFI     H1  752   1.978   1.692   3.100  0.0493 -0.3975  0.1724
   22HFI     H2  753   2.126   1.768   2.872 -0.4826 -0.2960 -0.0394
   23HFI     O1  754   2.388   0.973   0.592 -1.2885 -0.2488  0.7294
   23HFI     C1  755   2.467   1.017   0.472 -0.5594  0.5358 -0.6056
   23HFI     C2  756   2.382   0.991   0.343  0.0377 -0.3056 -0.2382
   23HFI     F1  757   2.344   0.862   0.341  0.1285 -0.0904  0.7110
   23HFI     F2  758   2.447   1.014   0.235  0.0581 -0.4823 -0.6052
   23HFI     F3  759   2.272   1.067   0.344  0.1256 -0.3272 -0.2033
   23HFI     C3  760   2.606   0.947   0.475 -0.1014  0.1622 -0.1621
   23HFI     F4  761   2.603   0.810   0.490  0.3587 -0.2009 -0.2575
   23HFI     F5  762   2.665   1.003   0.578 -0.1095 -0.0122 -0.3630
   23HFI     F6  763   2.680   0.977   0.365  0.1471  0.5750 -0.1636
   23HFI     H1  764   2.411   0.880   0.610  0.9500  0.6185  2.6233
   23HFI     H2  765   2.481   1.126   0.478  0.7435  0.4042 -1.0817
   24HFI     O1  766   0.832   0.373   0.896 -0.1162  0.1473  0.3163
   24HFI     C1  767   0.945   0.388   0.988 -0.1119  0.6029 -0.5083
   24HFI     C2  768   0.992   0.536   1.002  0.2074 -0.0331 -0.1289
   24HFI     F1  769   1.002   0.608   0.887 -0.3125 -0.1681 -0.6358
   24HFI     F2  770   1.107   0.563   1.065  0.9581  0.0272 -0.1690
   24HFI     F3  771   0.888   0.591   1.070 -0.6645 -0.2000 -0.2677
   24HFI     C3  772   1.067   0.294   0.948  0.8097 -0.8546 -0.1188
   24HFI     F4  773   1.119   0.352   0.843  0.3045 -0.1360  0.0471
   24HFI     F5  774   1.025   0.173   0.908 -0.0035  0.0097 -0.6938
   24HFI     F6  775   1.153   0.281   1.054  0.2022 -0.1491 -0.1326
   24HFI     H1  776   0.764   0.438   0.921 -0.6384 -0.7767  1.3003
   24HFI     H2  777   0.920   0.365   1.092  1.0772  0.0003 -0.3384
   25HFI     O1  778   0.040   2.222   0.835 -0.1015  0.0689 -0.3380
   25HFI     C1  779   0.063   2.279   0.972 -0.3141  0.3636  0.1335
   25HFI     C2  780  -0.011   2.414   0.991 -0.0191 -0.0059 -0.3213
   25HFI     F1  781   0.055   2.513   0.934  0.2374 -0.0505  0.2031
   25HFI     F2  782  -0.024   2.445   1.127 -0.0604 -0.6382 -0.1799
   25HFI     F3  783  -0.133   2.418   0.935  0.1275 -0.0760 -0.3577
   25HFI     C3  784   0.214   2.288   1.004  0.3678  0.0974 -0.1800
   25HFI     F4  785   0.276   2.347   0.903  0.5021  0.0613 -0.4578
   25HFI     F5  786   0.269   2.166   1.017 -0.2294 -0.4431  0.6943
   25HFI     F6  787   0.237   2.357   1.120 -0.3110 -0.9518 -0.3216
   25HFI     H1  788   0.039   2.288   0.763 -1.0944  0.0402 -0.3460
   25HFI     H2  789   0.017   2.208   1.042  0.0408 -0.2564 -0.2492
   26HFI     O1  790   0.492   2.375   2.686 -0.2896  0.2018 -0.4901
   26HFI     C1  791   0.418   2.320   2.798  0.3366 -0.2915  0.2176
   26HFI     C2  792   0.317   2.205   2.763  1.3629  0.0318  0.1142
   26HFI     F1  793   0.210   2.246   2.682 -0.4487 -0.1553  0.1096
   26HFI     F2  794   0.256   2.156   2.876 -0.1833 -0.2568  0.1881
   26HFI     F3  795   0.374   2.097   2.696 -0.7225  0.9210 -0.2722
   26HFI     C3  796   0.350   2.429   2.887  0.6681 -0.6528  0.3402
   26HFI     F4  797   0.246   2.490   2.825  0.3532 -0.0082  0.3761
   26HFI     F5  798   0.442   2.530   2.901  0.4390  0.3596 -0.0189
   26HFI     F6  799   0.312   2.381   3.010  0.1123 -0.2264 -0.2589
   26HFI     H1  800   0.424   2.418   2.631 -1.1266 -0.8549 -0.2855
   26HFI     H2  801   0.485   2.265   2.865 -0.9256 -0.0751  1.6887
   27HFI     O1  802   0.365   2.384   1.581 -0.6785 -0.1673  0.3021
   27HFI     C1  803   0.269   2.429   1.481 -0.2444 -0.5704  0.0134
   27HFI     C2  804   0.203   2.568   1.517 -0.5220  0.1109 -0.2948
   27HFI     F1  805   0.093   2.565   1.601  0.0444  0.1506  0.2872
   27HFI     F2  806   0.160   2.633   1.408  0.2539 -0.2315  0.4404
   27HFI     F3  807   0.289   2.642   1.591 -0.7063 -0.1699  0.2810
   27HFI     C3  808   0.165   2.321   1.455 -0.2587 -0.4499 -0.2330
   27HFI     F4  809   0.224   2.218   1.395 -0.2257 -0.5690  0.0837
   27HFI     F5  810   0.069   2.375   1.375  0.3255 -0.1511 -0.7909
   27HFI     F6  811   0.108   2.270   1.564 -0.2323 -0.1365 -0.0150
   27HFI     H1  812   0.434   2.329   1.539  1.0091  1.2173  1.1759
   27HFI     H2  813   0.326   2.449   1.389 -0.2610  2.8087  0.6799
   28HFI     O1  814   2.465   3.204   3.798  0.3949 -0.3882  0.3094
   28HFI     C1  815   2.444   3.088   3.710 -0.2443  0.0200  0.8343
   28HFI     C2  816   2.414   3.140   3.567  0.6485  0.2202  0.0260
   28HFI     F1  817   2.395   3.036   3.483 -0.4497  0.3641  0.2691
   28HFI     F2  818   2.507   3.215   3.513  0.3711 -0.0342  0.0425
   28HFI     F3  819   2.302   3.217   3.564  0.2441  0.1969 -0.2130
   28HFI     C3  820   2.345   2.978   3.763  0.8061  1.2960  0.1442
   28HFI     F4  821   2.361   2.953   3.898 -0.0759  0.5374  0.1227
   28HFI     F5  822   2.359   2.864   3.698  0.2816  0.1120  0.4000
   28HFI     F6  823   2.211   3.013   3.748 -0.3484  0.1330  0.1684
   28HFI     H1  824   2.379   3.237   3.827  0.0827 -0.5006 -0.4677
   28HFI     H2  825   2.543   3.046   3.690 -0.3669  0.0995  0.0681
   29HFI     O1  826   3.333   2.245   0.522 -0.4967 -0.1636 -0.2198
   29HFI     C1  827   3.404   2.289   0.411 -0.3303  0.6961 -0.5318
   29HFI     C2  828   3.310   2.326   0.293 -0.0928  0.2963  0.4982
   29HFI     F1  829   3.201   2.251   0.282  0.6297  0.6065 -0.2128
   29HFI     F2  830   3.372   2.322   0.177 -0.2809  0.0965  0.6401
   29HFI     F3  831   3.275   2.454   0.302  0.5388  0.5945  0.0727
   29HFI     C3  832   3.531   2.202   0.373 -0.3004  0.1334  0.4144
   29HFI     F4  833   3.498   2.099   0.289 -0.0217  0.0696 -0.3610
   29HFI     F5  834   3.600   2.138   0.471 -0.3787 -0.6182 -0.0461
   29HFI     F6  835   3.623   2.288   0.311  0.3894  0.5407  0.2507
   29HFI     H1  836   3.258   2.189   0.496  0.5362 -0.3018 -3.1303
   29HFI     H2  837   3.448   2.384   0.445  2.0430  0.2388 -2.1743
   30HFI     O1  838   1.140   1.422   0.530  0.6728  0.2565  0.0198
   30HFI     C1  839   1.074   1.482   0.415  0.7132 -0.5125  0.2716
   30HFI     C2  840   1.029   1.373   0.323  0.3927 -0.1285 -0.3695
   30HFI     F1  841   0.933   1.307   0.380 -0.2984 -0.3057  0.2687
   30HFI     F2  842   1.121   1.294   0.279 -0.3955  0.1950 -0.0065
   30HFI     F3  843   0.968   1.419   0.211 -0.2990 -0.1772  0.3088
   30HFI     C3  844   1.170   1.579   0.351 -0.3374  0.2045 -0.6121
   30HFI     F4  845   1.292   1.527   0.329  0.2684  0.2801  0.3949
   30HFI     F5  846   1.184   1.677   0.435 -0.2201 -0.7844  0.0692
   30HFI     F6  847   1.128   1.623   0.230  0.3618  0.3030 -0.1399
   30HFI     H1  848   1.200   1.491   0.561  0.4990  0.3040  0.2522
   30HFI     H2  849   0.978   1.523   0.447 -0.3529 -2.5807 -0.2381
   31HFI     O1  850   0.779   0.707   0.190  0.6715 -0.2927  0.5462
   31HFI     C1  851   0.782   0.671   0.048 -0.2735  0.2060  0.3043
   31HFI     C2  852   0.922   0.664  -0.005 -0.0569  0.7236  1.0764
   31HFI     F1  853   0.986   0.783  -0.009 -0.1117 -0.2767 -0.2635
   31HFI     F2  854   0.923   0.612  -0.129 -0.2874  0.0841 -0.5548
   31HFI     F3  855   0.997   0.579   0.063 -0.1023  0.0805  0.0202
   31HFI     C3  856   0.691   0.763  -0.036 -0.1358 -0.2247  0.2904
   31HFI     F4  857   0.565   0.756   0.002  0.0898 -0.7635 -0.6465
   31HFI     F5  858   0.691   0.719  -0.169  0.0981 -0.2121  0.2969
   31HFI     F6  859   0.733   0.893  -0.038  0.0711  0.8657 -0.0987
   31HFI     H1  860   0.825   0.636   0.238  0.5990 -0.5212  0.2832
   31HFI     H2  861   0.738   0.571   0.033  0.3805 -0.3179  1.7442
   32HFI     O1  862   1.375   2.373   1.286  0.0443  0.1463  0.4721
   32HFI     C1  863   1.283   2.369   1.397 -0.3923  0.2032  0.3922
   32HFI     C2  864   1.149   2.306   1.356 -0.6678  0.0777  0.3198
   32HFI     F1  865   1.069   2.281   1.465  0.2627  0.2395 -0.2010
   32HFI     F2  866   1.163   2.185   1.307 -0.1187  0.7317  0.5487
   32HFI     F3  867   1.081   2.383   1.262 -0.1310 -0.2004  0.0566
   32HFI     C3  868   1.265   2.515   1.456 -0.6512  0.5695  0.2210
   32HFI     F4  869   1.198   2.596   1.366  0.1782  0.6189 -0.4640
   32HFI     F5  870   1.387   2.570   1.493  0.3491  0.3538 -0.0189
   32HFI     F6  871   1.192   2.504   1.568 -0.0037 -0.3240 -0.3183
   32HFI     H1  872   1.461   2.359   1.328 -0.1314 -2.1287  0.1244
   32HFI     H2  873   1.326   2.300   1.469 -0.0114 -1.5867 -1.5078
   33HFI     O1  874   3.359   0.422   1.342  0.5675 -0.6267 -0.2385
   33HFI     C1  875   3.414   0.545   1.375 -0.3560 -0.3716 -0.3582
   33HFI     C2  876   3.374   0.581   1.523  0.6892  0.5320  0.1027
   33HFI     F1  877   3.417   0.496   1.620  0.3059 -0.5494 -0.1802
   33HFI     F2  878   3.241   0.579   1.529  0.0534  0.3734 -0.0480
   33HFI     F3  879   3.411   0.708   1.550  0.2758  0.2435 -0.3520
   33HFI     C3  880   3.391   0.654   1.265  0.7612 -0.7845 -0.6279
   33HFI     F4  881   3.426   0.595   1.150  0.0509 -0.0167 -0.0684
   33HFI     F5  882   3.467   0.768   1.287  0.5408  0.0489 -0.3363
   33HFI     F6  883   3.258   0.685   1.271 -0.4549  0.1551  0.0148
   33HFI     H1  884   3.262   0.426   1.348  0.4636 -1.1879 -1.3485
   33HFI     H2  885   3.523   0.547   1.388 -0.5341 -1.0204  1.3350
   34HFI     O1  886   2.494   1.982   0.859  0.6475  0.0008 -0.0539
   34HFI     C1  887   2.605   2.011   0.952 -0.0029  0.7427 -0.3153
   34HFI     C2  888   2.710   1.892   0.944  0.1236 -0.0487 -0.3890
   34HFI     F1  889   2.824   1.936   0.999  0.1761 -0.2018  0.2038
   34HFI     F2  890   2.741   1.851   0.821  0.0481  0.2703  0.1934
   34HFI     F3  891   2.668   1.786   1.010  0.1941  0.0471  0.2602
   34HFI     C3  892   2.544   2.053   1.094 -0.4453  0.8011  0.1254
   34HFI     F4  893   2.646   2.050   1.187  0.3078 -0.0897 -0.3525
   34HFI     F5  894   2.450   1.963   1.140 -0.1593 -0.1885 -0.0232
   34HFI     F6  895   2.492   2.185   1.095  0.2399  0.3355  0.5033
   34HFI     H1  896   2.433   1.923   0.905 -1.1424  1.1411 -0.9203
   34HFI     H2  897   2.662   2.097   0.914  1.4414  0.5651  1.3715
   35HFI     O1  898   1.570   2.868   3.233  0.5355  0.4856  0.4206
   35HFI     C1  899   1.500   2.975   3.300 -0.4218 -0.5941 -0.6836
   35HFI     C2  900   1.343   2.958   3.310 -0.3844 -0.1418 -0.0259
   35HFI     F1  901   1.307   2.845   3.385  0.0070 -0.6521 -0.3247
   35HFI     F2  902   1.295   2.946   3.191 -0.1164 -0.0359  0.2528
   35HFI     F3  903   1.289   3.063   3.372  0.1327  0.3290  0.6042
   35HFI     C3  904   1.549   3.103   3.230 -0.2223  0.0848 -0.3130
   35HFI     F4  905   1.479   3.134   3.118  0.6220 -0.7183 -0.4397
   35HFI     F5  906   1.683   3.103   3.201 -0.0055 -0.3083  0.1265
   35HFI     F6  907   1.525   3.197   3.322  0.1772 -0.5453 -0.0420
   35HFI     H1  908   1.510   2.791   3.233 -1.1096  1.7202  0.4259
   35HFI     H2  909   1.537   2.984   3.403  2.0878  1.0363 -1.6934
   36HFI     O1  910   3.053   2.997   1.299 -0.3642 -0.1220  0.2266
   36HFI     C1  911   2.969   3.118   1.312 -0.1216 -0.5458 -0.5637
   36HFI     C2  912   3.026   3.224   1.212  0.4715  0.7347  0.1443
   36HFI     F1  913   3.149   3.277   1.235 -0.3367  0.9580  0.5688
   36HFI     F2  914   2.941   3.334   1.201 -0.4418  0.1064  0.1592
   36HFI     F3  915   3.036   3.166   1.086 -0.3680 -0.3926 -0.7335
   36HFI     C3  916   2.967   3.181   1.459 -0.5999 -0.9326 -0.2986
   36HFI     F4  917   3.094   3.192   1.514  0.1773  0.3981  0.1967
   36HFI     F5  918   2.905   3.097   1.545 -0.8559 -0.0031 -0.5072
   36HFI     F6  919   2.905   3.301   1.457 -0.1040 -0.8036 -0.4467
   36HFI     H1  920   3.147   3.006   1.324 -0.5155 -0.0865  0.8061
   36HFI     H2  921   2.864   3.115   1.283  0.1283  3.0022 -2.0929
   37HFI     O1  922   0.895   2.602   1.388  0.1984 -0.0866 -0.0955
   37HFI     C1  923   0.777   2.683   1.366  0.1989  0.1309 -0.3779
   37HFI     C2  924   0.717   2.723   1.504  0.5059  0.1271  0.2256
   37HFI     F1  925   0.790   2.816   1.566  0.5952  0.3568 -0.2908
   37HFI     F2  926   0.709   2.624   1.592  0.3100 -0.2076 -0.2954
   37HFI     F3  927   0.585   2.764   1.486 -0.0755  0.4915  0.3131
   37HFI     C3  928   0.680   2.602   1.272 -0.7554  0.1009  0.2552
   37HFI     F4  929   0.577   2.675   1.221 -0.0262  0.2389  0.0565
   37HFI     F5  930   0.631   2.497   1.338 -0.1330 -0.4585  0.0957
   37HFI     F6  931   0.755   2.559   1.167 -0.3805  0.2002  0.0269
   37HFI     H1  932   0.872   2.515   1.350 -1.4928 -0.1732  1.0859
   37HFI     H2  933   0.796   2.781   1.322 -0.0889  0.9096  1.2266
   38HFI     O1  934   0.008   3.325   1.407  0.6129  0.3672 -0.4499
   38HFI     C1  935   0.012   3.444   1.497 -0.3835 -0.3837  0.4584
   38HFI     C2  936  -0.111   3.539   1.482 -0.1399  0.5940  0.1718
   38HFI     F1  937  -0.105   3.637   1.574 -0.1880 -0.6560  0.0181
   38HFI     F2  938  -0.222   3.465   1.495 -0.6872 -0.1153  0.4168
   38HFI     F3  939  -0.106   3.589   1.352 -0.4083 -0.1617 -0.2905
   38HFI     C3  940   0.160   3.508   1.489  0.2273  0.2788  0.4735
   38HFI     F4  941   0.254   3.414   1.506 -0.0914 -0.7135  0.1173
   38HFI     F5  942   0.181   3.605   1.582 -0.3552 -0.2128  0.4678
   38HFI     F6  943   0.185   3.556   1.369 -0.6593  0.0048  0.7097
   38HFI     H1  944   0.022   3.361   1.318  0.2984 -0.0130 -0.6511
   38HFI     H2  945  -0.003   3.414   1.601 -2.0239 -0.6155  0.1761
   39HFI     O1  946   1.336   2.561   0.869  0.2266 -0.0015 -0.8707
   39HFI     C1  947   1.271   2.692   0.901  0.2019  0.8924 -0.2340
   39HFI     C2  948   1.360   2.774   1.001 -0.3086  0.0333 -0.4661
   39HFI     F1  949   1.385   2.696   1.108 -0.0692 -0.3314  0.1680
   39HFI     F2  950   1.297   2.882   1.042  0.0810  0.5614  0.5231
   39HFI     F3  951   1.482   2.803   0.952  0.1708  0.7801  0.3657
   39HFI     C3  952   1.130   2.676   0.942  0.7326 -0.3516 -0.0188
   39HFI     F4  953   1.063   2.585   0.858  0.2255 -0.2124  0.5730
   39HFI     F5  954   1.068   2.793   0.936  0.6153 -0.0931  0.8923
   39HFI     F6  955   1.119   2.631   1.069 -0.5108  0.0695 -0.2151
   39HFI     H1  956   1.266   2.495   0.857  0.0611  0.0042 -0.0122
   39HFI     H2  957   1.268   2.743   0.803  0.7782  1.2157 -0.0829
   40HFI     O1  958   0.713   1.637   3.670  0.5232  0.0779  0.5074
   40HFI     C1  959   0.835   1.710   3.707  0.5784 -0.4249 -0.4794
   40HFI     C2  960   0.964   1.624   3.682 -0.0041 -0.0702 -0.1725
   40HFI     F1  961   0.972   1.504   3.743  0.1625 -0.1490  0.0501
   40HFI     F2  962   1.073   1.697   3.717  0.0695  0.1417 -0.3866
   40HFI     F3  963   0.970   1.604   3.556  0.5505  0.5708  0.3226
   40HFI     C3  964   0.823   1.765   3.853 -0.5107  0.1038  0.1967
   40HFI     F4  965   0.831   1.664   3.940 -0.6419  0.4902  0.5864
   40HFI     F5  966   0.699   1.821   3.873  0.0224 -0.4933 -0.0278
   40HFI     F6  967   0.917   1.858   3.887  0.6090  0.5893 -0.5359
   40HFI     H1  968   0.721   1.544   3.696 -1.1466 -0.0018  0.7952
   40HFI     H2  969   0.846   1.793   3.636  2.3485  0.8078  1.1682
   41HFI     O1  970   0.417   2.438   3.697 -0.4967  0.0134 -0.6020
   41HFI     C1  971   0.466   2.555   3.773 -1.0452  0.3958 -0.3716
   41HFI     C2  972   0.343   2.640   3.816 -0.1074 -1.4156  0.5541
   41HFI     F1  973   0.281   2.577   3.919  0.4844  0.0938 -0.2989
   41HFI     F2  974   0.237   2.653   3.725 -0.4208 -0.5796 -0.1326
   41HFI     F3  975   0.379   2.768   3.851  0.1139  0.2954 -0.1778
   41HFI     C3  976   0.573   2.638   3.690 -0.1508  0.9436  0.3212
   41HFI     F4  977   0.669   2.556   3.637  0.7438 -0.4285  0.2698
   41HFI     F5  978   0.641   2.729   3.762  0.5032  0.0201 -0.3310
   41HFI     F6  979   0.510   2.694   3.584 -0.4480  0.1609 -0.3355
   41HFI     H1  980   0.328   2.455   3.662 -1.0053  0.2931  0.8182
   41HFI     H2  981   0.511   2.528   3.869 -2.5719  0.7251  0.4539
   42HFI     O1  982   0.258   1.171   2.767 -0.3442  0.1844 -0.2753
   42HFI     C1  983   0.146   1.234   2.847  0.2356 -0.0052  0.0537
   42HFI     C2  984   0.015   1.278   2.770 -0.6546  0.6092  0.0898
   42HFI     F1  985  -0.082   1.302   2.860  0.2025 -0.4616 -0.1366
   42HFI     F2  986  -0.021   1.181   2.687 -0.0638  0.0400 -0.1051
   42HFI     F3  987   0.039   1.394   2.703  0.1352  0.5108 -0.2821
   42HFI     C3  988   0.201   1.344   2.943 -0.5941  0.3926  0.8609
   42HFI     F4  989   0.288   1.281   3.018  0.1736 -0.1098  0.0629
   42HFI     F5  990   0.115   1.390   3.029 -0.0966 -0.3911  0.7317
   42HFI     F6  991   0.262   1.450   2.877  0.5286 -0.0770  0.1377
   42HFI     H1  992   0.336   1.228   2.760 -1.3550  1.5035 -0.9443
   42HFI     H2  993   0.112   1.152   2.912 -0.9330  0.5553  0.1624
   43HFI     O1  994   2.487   2.063   3.552 -0.0801  0.3835 -0.0942
   43HFI     C1  995   2.530   1.961   3.452 -0.0595 -0.0040  0.1331
   43HFI     C2  996   2.503   2.021   3.311  0.2257 -0.3851  0.4400
   43HFI     F1  997   2.533   1.930   3.215  0.1668 -0.0582  0.2107
   43HFI     F2  998   2.580   2.134   3.290  0.6878  0.1654 -0.1214
   43HFI     F3  999   2.376   2.061   3.292 -0.0581  0.0681 -0.0474
   43HFI     C3 1000   2.456   1.822   3.478 -0.1395  0.0954 -0.6381
   43HFI     F4 1001   2.529   1.725   3.423  0.2833  0.6933 -0.6066
   43HFI     F5 1002   2.327   1.819   3.432 -0.1784  0.0404  0.3122
   43HFI     F6 1003   2.452   1.798   3.608 -0.0692  0.1940  0.5249
   43HFI     H1 1004   2.394   2.090   3.539 -0.3625  0.7278  2.3610
   43HFI     H2 1005   2.639   1.966   3.447  0.0053 -0.8661  0.6479
   44HFI     O1 1006   2.272   2.737   1.129 -0.9423 -0.1596  0.4964
   44HFI     C1 1007   2.186   2.721   1.008  0.1339 -0.5024 -0.0821
   44HFI     C2 1008   2.165   2.571   0.964  0.9004 -0.4398 -0.0010
   44HFI     F1 1009   2.098   2.494   1.054  0.0248  0.1094 -0.4043
   44HFI     F2 1010   2.286   2.515   0.952 -0.0257 -0.0740 -0.6170
   44HFI     F3 1011   2.101   2.559   0.848 -0.2027 -0.3680  0.1392
   44HFI     C3 1012   2.236   2.803   0.884  0.9903  0.3233 -0.1747
   44HFI     F4 1013   2.349   2.746   0.834  0.0714  0.1685 -0.4949
   44HFI     F5 1014   2.272   2.929   0.927  0.1290 -0.0277 -0.3030
   44HFI     F6 1015   2.148   2.825   0.788 -0.2008 -0.1738 -0.0545
   44HFI     H1 1016   2.334   2.661   1.131 -1.9129 -0.9505  3.2824
   44HFI     H2 1017   2.086   2.762   1.029  0.3605  0.5277 -0.9273
   45HFI     O1 1018   2.540   2.556   1.112  0.5378  0.1152 -0.3684
   45HFI     C1 1019   2.627   2.587   1.000  0.5997 -0.8753 -0.2094
   45HFI     C2 1020   2.727   2.478   0.945  0.5938  0.9671  0.0138
   45HFI     F1 1021   2.652   2.375   0.903 -0.0243 -0.2908  0.1774
   45HFI     F2 1022   2.818   2.433   1.041 -0.0590 -0.1600 -0.1971
   45HFI     F3 1023   2.797   2.530   0.843  0.0087  0.1205  0.1540
   45HFI     C3 1024   2.690   2.724   1.033 -0.4961  0.0702 -0.5428
   45HFI     F4 1025   2.758   2.788   0.929  0.1824  0.4896  0.4301
   45HFI     F5 1026   2.771   2.713   1.138 -0.0208 -0.3131 -0.3753
   45HFI     F6 1027   2.589   2.816   1.063  0.2267  0.5073 -0.6321
   45HFI     H1 1028   2.595   2.561   1.192 -1.1000  1.4903  0.7118
   45HFI     H2 1029   2.561   2.613   0.916  0.0377 -2.3942 -0.2523
   46HFI     O1 1030   0.450   0.116   0.339  0.3917 -0.3708  0.6232
   46HFI     C1 1031   0.512  -0.001   0.394  0.5985  0.3640  0.7007
   46HFI     C2 1032   0.440  -0.053   0.524 -0.4509 -0.2169 -0.3693
   46HFI     F1 1033   0.318  -0.098   0.484  0.1426 -0.4749 -0.2363
   46HFI     F2 1034   0.426   0.037   0.621  0.0819 -0.3244  0.0195
   46HFI     F3 1035   0.515  -0.161   0.563  0.1516  0.0586 -0.1200
   46HFI     C3 1036   0.667   0.017   0.416 -1.1849  0.5116 -0.6039
   46HFI     F4 1037   0.730  -0.103   0.419  0.2707 -0.1378  0.2493
   46HFI     F5 1038   0.685   0.075   0.538 -0.5132 -0.4015  0.2025
   46HFI     F6 1039   0.722   0.096   0.323 -0.0981  0.0770 -0.4417
   46HFI     H1 1040   0.360   0.095   0.310  0.1962  1.1126  0.1062
   46HFI     H2 1041   0.495  -0.078   0.317 -0.1881  0.8229  0.4050
   47HFI     O1 1042   1.001   3.038   0.179 -0.1790 -0.1544 -0.0578
   47HFI     C1 1043   0.960   3.048   0.040 -0.3962 -0.4012  0.1900
   47HFI     C2 1044   0.806   3.100   0.036 -0.5635 -0.0881 -0.6306
   47HFI     F1 1045   0.794   3.214   0.114  0.0373  0.3634  0.2520
   47HFI     F2 1046   0.731   3.008   0.091  0.0275 -0.2353  0.5001
   47HFI     F3 1047   0.768   3.129  -0.094 -0.1369 -0.2238  0.1291
   47HFI     C3 1048   0.993   2.930  -0.049  0.0057  0.0147  0.8299
   47HFI     F4 1049   0.900   2.831  -0.047  0.1835  0.3044 -0.2759
   47HFI     F5 1050   1.112   2.884  -0.017 -0.2434 -0.5580 -0.7034
   47HFI     F6 1051   1.006   2.959  -0.181 -0.0970 -0.3554 -0.3121
   47HFI     H1 1052   0.942   2.966   0.207 -0.1185 -0.1830 -0.0054
   47HFI     H2 1053   1.014   3.134  -0.002 -0.7322  0.5677  1.6712
   48HFI     O1 1054   0.308   1.721   1.576  0.1420 -0.1596  0.0736
   48HFI     C1 1055   0.207   1.725   1.465  0.4819 -0.1131 -0.1136
   48HFI     C2 1056   0.086   1.813   1.503 -0.0946 -0.3851 -0.1755
   48HFI     F1 1057   0.017   1.758   1.605 -0.3328  0.3406 -0.0470
   48HFI     F2 1058   0.001   1.830   1.399  0.2361  0.3273  0.1412
   48HFI     F3 1059   0.139   1.929   1.539  0.3362  0.5859 -0.2604
   48HFI     C3 1060   0.169   1.577   1.423  0.7323 -0.2339 -0.2748
   48HFI     F4 1061   0.269   1.541   1.338 -0.1583  0.2818 -0.0274
   48HFI     F5 1062   0.048   1.570   1.355  0.0809  0.4120  0.3410
   48HFI     F6 1063   0.176   1.488   1.526 -0.4293 -0.2874  0.1819
   48HFI     H1 1064   0.254   1.710   1.656 -1.8844 -1.0906 -1.3663
   48HFI     H2 1065   0.252   1.769   1.375  0.5992 -0.4109 -0.2013
   49HFI     O1 1066   2.159   0.999   1.309 -0.1527 -0.4324 -0.3093
   49HFI     C1 1067   2.079   1.053   1.419 -0.2281 -0.2059 -0.1992
   49HFI     C2 1068   2.164   1.156   1.506  0.5095  0.2793  0.7739
   49HFI     F1 1069   2.239   1.241   1.432  0.0366  0.4215  0.7402
   49HFI     F2 1070   2.244   1.093   1.593  0.0681 -0.7807  0.1624
   49HFI     F3 1071   2.080   1.237   1.574  0.6119 -0.0632  0.0579
   49HFI     C3 1072   1.995   0.942   1.498  0.4592  0.3402  0.3085
   49HFI     F4 1073   2.079   0.845   1.560  0.2010  0.0250  0.4735
   49HFI     F5 1074   1.927   0.873   1.403 -0.5352 -0.0983  0.2571
   49HFI     F6 1075   1.908   0.991   1.585  0.5187 -0.5487 -0.0678
   49HFI     H1 1076   2.165   1.068   1.242 -1.0405 -0.9867 -0.9829
   49HFI     H2 1077   1.999   1.122   1.387 -0.2066  0.2476  0.7123
   50HFI     O1 1078   0.653   1.841   1.528 -0.3244  0.2337  0.7819
   50HFI     C1 1079   0.674   1.987   1.507  1.0064 -0.1357 -0.2708
   50HFI     C2 1080   0.536   2.060   1.454  0.1209 -0.5965  0.0942
   50HFI     F1 1081   0.428   2.069   1.539  0.0665 -0.3335 -0.3245
   50HFI     F2 1082   0.491   1.992   1.346 -0.5373  0.1061 -0.1688
   50HFI     F3 1083   0.554   2.187   1.416 -0.5015 -0.4651 -0.7442
   50HFI     C3 1084   0.789   2.011   1.404 -0.2256 -0.0699 -0.7708
   50HFI     F4 1085   0.822   2.144   1.400 -0.0657 -0.2034 -0.1737
   50HFI     F5 1086   0.765   1.964   1.279  0.4283 -0.3497  0.3427
   50HFI     F6 1087   0.904   1.947   1.444  0.8711  0.0958 -0.2247
   50HFI     H1 1088   0.596   1.805   1.458 -0.2549  1.5971  0.0078
   50HFI     H2 1089   0.710   2.036   1.598  0.5771 -0.1485 -0.0946
   51HFI     O1 1090   1.143   1.481   2.922 -0.0566 -0.3888  0.5927
   51HFI     C1 1091   1.145   1.390   2.805 -0.4550  0.2725 -0.4057
   51HFI     C2 1092   1.006   1.369   2.739 -0.8066  0.1367 -0.2735
   51HFI     F1 1093   0.940   1.482   2.728 -0.0676  0.3690 -0.4039
   51HFI     F2 1094   0.934   1.271   2.808  0.0755  0.0133 -0.1748
   51HFI     F3 1095   1.021   1.321   2.617  0.0097  0.8046  0.3458
   51HFI     C3 1096   1.223   1.257   2.838  0.3141  0.0453  0.4475
   51HFI     F4 1097   1.174   1.206   2.955  0.1126  0.4526  0.3675
   51HFI     F5 1098   1.358   1.292   2.856  0.0926 -0.1888 -0.2020
   51HFI     F6 1099   1.206   1.167   2.737 -0.4826  0.2341 -0.0853
   51HFI     H1 1100   1.100   1.431   2.994 -1.6634 -0.7916 -0.6246
   51HFI     H2 1101   1.217   1.429   2.732  0.2023  2.2733  1.2701
   52HFI     O1 1102   0.520   3.056   0.779 -0.0936  0.5181  0.2289
   52HFI     C1 1103   0.598   3.039   0.899  0.2765  0.6932  0.4636
   52HFI     C2 1104   0.680   2.900   0.894  0.2629  0.0013  0.2609
   52HFI     F1 1105   0.613   2.799   0.934 -0.7679 -0.1757 -0.0783
   52HFI     F2 1106   0.798   2.915   0.961 -0.2255 -0.2735 -0.4189
   52HFI     F3 1107   0.718   2.869   0.767  0.4735 -0.3512 -0.0952
   52HFI     C3 1108   0.516   3.047   1.032  0.7206  0.3303  0.5641
   52HFI     F4 1109   0.417   2.949   1.031  0.3271 -0.4010 -0.2479
   52HFI     F5 1110   0.464   3.168   1.041 -0.3755 -0.3016 -0.0492
   52HFI     F6 1111   0.593   3.041   1.141 -0.0876  0.0014  0.0619
   52HFI     H1 1112   0.425   3.050   0.800 -0.9712 -0.9152 -3.6727
   52HFI     H2 1113   0.678   3.113   0.890  1.6771 -0.9574 -1.0634
   53HFI     O1 1114   1.536   0.958   1.083  0.4208 -0.3668  0.1345
   53HFI     C1 1115   1.571   0.823   1.112 -0.0378  0.8684  0.4777
   53HFI     C2 1116   1.675   0.760   1.021 -0.0518  0.1128 -0.5246
   53HFI     F1 1117   1.643   0.771   0.888 -0.0151 -0.0025  0.1504
   53HFI     F2 1118   1.704   0.628   1.058 -0.0589 -0.1155  0.0297
   53HFI     F3 1119   1.793   0.828   1.016  0.2090 -0.5441 -0.7550
   53HFI     C3 1120   1.436   0.743   1.123 -0.1252 -0.4744 -0.2574
   53HFI     F4 1121   1.343   0.804   1.203  0.2541 -0.8072  0.0221
   53HFI     F5 1122   1.475   0.616   1.170  0.4662  0.1173 -0.0591
   53HFI     F6 1123   1.371   0.716   1.006  0.6012  0.7888 -0.1900
   53HFI     H1 1124   1.471   0.962   1.011  0.5746 -0.6320 -0.0229
   53HFI     H2 1125   1.614   0.824   1.213  1.3125  1.0540 -0.0791
   54HFI     O1 1126   0.589   2.564   3.320 -0.1429  0.5570 -0.7231
   54HFI     C1 1127   0.682   2.652   3.245  0.3364  0.1116  0.4956
   54HFI     C2 1128   0.831   2.650   3.287 -0.1928 -0.2290 -0.6002
   54HFI     F1 1129   0.912   2.707   3.194  0.4790 -0.2863 -0.4726
   54HFI     F2 1130   0.876   2.521   3.312  0.3132 -0.0464  0.3082
   54HFI     F3 1131   0.849   2.724   3.402  0.1359 -0.4095 -0.8468
   54HFI     C3 1132   0.622   2.796   3.237 -0.1031 -0.1266 -0.1512
   54HFI     F4 1133   0.499   2.785   3.195 -0.5738  0.7692  0.0068
   54HFI     F5 1134   0.690   2.877   3.152  0.3041 -0.3067  0.3379
   54HFI     F6 1135   0.629   2.860   3.354 -0.4095 -0.7532 -0.1547
   54HFI     H1 1136   0.554   2.609   3.399  1.4233  1.9940 -0.8237
   54HFI     H2 1137   0.684   2.629   3.138 -0.8228 -0.6865  0.6325
   55HFI     O1 1138   1.225   3.195   0.560 -0.6680 -0.2995 -0.2278
   55HFI     C1 1139   1.086   3.175   0.596 -0.4031  0.4823  0.6868
   55HFI     C2 1140   1.008   3.314   0.614  0.5311  1.1611 -0.0369
   55HFI     F1 1141   0.987   3.366   0.489  0.2197 -0.0187 -0.2393
   55HFI     F2 1142   1.077   3.403   0.679  0.1512 -0.0939  0.3163
   55HFI     F3 1143   0.888   3.307   0.677  0.0034 -0.2688  0.8156
   55HFI     C3 1144   1.081   3.085   0.718  0.5866  0.2055  0.0900
   55HFI     F4 1145   1.139   3.141   0.828  0.1505  0.0580  0.1255
   55HFI     F5 1146   1.142   2.966   0.696 -0.0465 -0.3047 -0.6499
   55HFI     F6 1147   0.954   3.057   0.759 -0.1272 -0.1228 -0.4458
   55HFI     H1 1148   1.252   3.288   0.566  0.8225 -0.7230 -0.2427
   55HFI     H2 1149   1.045   3.115   0.514 -2.7801  0.4633  1.8670
   56HFI     O1 1150   0.742   0.176   1.147 -0.2499 -0.6229  1.4867
   56HFI     C1 1151   0.743   0.099   1.025  0.1892 -0.3157 -0.0636
   56HFI     C2 1152   0.603   0.093   0.960  0.0279  0.2073  0.0948
   56HFI     F1 1153   0.576   0.217   0.923  0.1994  0.4173  0.5376
   56HFI     F2 1154   0.514   0.063   1.053  0.2370  0.0801  0.0571
   56HFI     F3 1155   0.599   0.009   0.859  0.4313 -0.1477  0.2552
   56HFI     C3 1156   0.805  -0.042   1.042 -0.7532 -0.1534 -0.9650
   56HFI     F4 1157   0.917  -0.020   1.108 -0.6787 -0.2137 -0.5881
   56HFI     F5 1158   0.841  -0.098   0.922 -0.0337 -0.4056  0.2682
   56HFI     F6 1159   0.724  -0.122   1.115  0.0506 -0.1783  0.0251
   56HFI     H1 1160   0.680   0.132   1.207 -0.3829 -0.4564  1.4723
   56HFI     H2 1161   0.800   0.142   0.942  2.1030 -1.8565  0.4058
   57HFI     O1 1162   1.504   1.064   0.710 -0.1276 -0.1852 -0.5420
   57HFI     C1 1163   1.536   1.099   0.569  0.0420 -0.0365  0.3876
   57HFI     C2 1164   1.445   1.220   0.514 -0.0188 -0.5398  0.1954
   57HFI     F1 1165   1.421   1.307   0.612 -0.2106  0.4669 -0.1854
   57HFI     F2 1166   1.323   1.174   0.478  0.4374 -0.2296 -0.1631
   57HFI     F3 1167   1.505   1.283   0.410 -0.1742 -0.1146  0.2829
   57HFI     C3 1168   1.533   0.966   0.485  0.0532 -0.1539  0.1326
   57HFI     F4 1169   1.453   0.876   0.533  0.2875 -0.1129 -0.7050
   57HFI     F5 1170   1.659   0.910   0.489  0.4469  0.3184 -0.1411
   57HFI     F6 1171   1.504   0.981   0.355  0.1861  0.1438  0.5352
   57HFI     H1 1172   1.466   1.140   0.758 -0.0787 -0.8964  0.6523
   57HFI     H2 1173   1.639   1.136   0.577 -0.4749  1.1773  1.4970
   58HFI     O1 1174   0.459   0.260   1.313  0.4711  0.2576  0.2095
   58HFI     C1 1175   0.519   0.381   1.361 -0.6165 -0.0134  0.3805
   58HFI     C2 1176   0.477   0.407   1.511 -0.0769 -0.0432 -0.0878
   58HFI     F1 1177   0.566   0.488   1.573 -0.0150 -0.4232  0.0456
   58HFI     F2 1178   0.478   0.291   1.583  0.3407 -0.6189 -0.3115
   58HFI     F3 1179   0.357   0.463   1.518 -0.1209 -0.0819 -0.2214
   58HFI     C3 1180   0.488   0.498   1.263  0.6000  0.3601  0.1798
   58HFI     F4 1181   0.355   0.536   1.265 -0.5785  0.3745  0.2322
   58HFI     F5 1182   0.514   0.474   1.137 -0.3409  0.1948 -0.3436
   58HFI     F6 1183   0.561   0.600   1.306  0.6921 -0.1811  0.6027
   58HFI     H1 1184   0.363   0.268   1.306  0.4449  2.2357  2.2805
   58HFI     H2 1185   0.628   0.368   1.357 -0.5487  0.4454  0.7762
   59HFI     O1 1186   0.500   3.286   1.411  0.0435 -0.2067  0.0297
   59HFI     C1 1187   0.606   3.278   1.516  0.4636  0.2681 -0.1937
   59HFI     C2 1188   0.723   3.375   1.475  0.2188  0.2437 -0.4713
   59HFI     F1 1189   0.806   3.405   1.575  0.7864 -0.2067 -0.3702
   59HFI     F2 1190   0.676   3.494   1.433  1.0076  0.3165  0.5516
   59HFI     F3 1191   0.798   3.328   1.373  0.3069  0.2532 -0.1286
   59HFI     C3 1192   0.650   3.137   1.540 -1.1710 -0.7104  0.5366
   59HFI     F4 1193   0.773   3.131   1.602  0.3088  0.2878  0.1994
   59HFI     F5 1194   0.672   3.079   1.420 -0.0371  0.0015 -0.1118
   59HFI     F6 1195   0.564   3.065   1.612 -0.0894  0.0164  0.3107
   59HFI     H1 1196   0.508   3.206   1.355  0.0380 -0.9215  1.0342
   59HFI     H2 1197   0.570   3.318   1.612 -0.0797  0.2360 -0.3864
   60HFI     O1 1198   1.795   2.201   3.408 -0.2401  0.3772  0.4289
   60HFI     C1 1199   1.922   2.265   3.415  0.0202  0.0210  0.6968
   60HFI     C2 1200   1.915   2.404   3.371 -0.3161 -0.3575 -0.6821
   60HFI     F1 1201   1.823   2.472   3.433  0.0571  0.3168 -0.4223
   60HFI     F2 1202   1.893   2.410   3.241 -0.0814  0.2634 -0.3853
   60HFI     F3 1203   2.036   2.462   3.396  0.3825 -0.2528  0.1482
   60HFI     C3 1204   2.036   2.174   3.344 -0.2362 -0.3957  0.0040
   60HFI     F4 1205   2.155   2.229   3.353 -0.0517  0.3452  0.1432
   60HFI     F5 1206   1.998   2.164   3.220  0.3105 -0.1615 -0.0870
   60HFI     F6 1207   2.035   2.045   3.395 -0.0466  0.1938  0.5716
   60HFI     H1 1208   1.776   2.196   3.312 -1.0650  3.0046  0.4064
   60HFI     H2 1209   1.953   2.276   3.519  1.3823 -1.1071  0.4300
   61HFI     O1 1210   0.761   1.380   0.651 -0.2007  0.0019 -0.0806
   61HFI     C1 1211   0.626   1.324   0.651 -0.5293 -0.1834  0.4787
   61HFI     C2 1212   0.550   1.391   0.774  0.5130 -0.2232 -0.9580
   61HFI     F1 1213   0.571   1.527   0.776  0.4885 -0.2960 -0.0134
   61HFI     F2 1214   0.584   1.341   0.896 -0.1547  0.1656  0.0753
   61HFI     F3 1215   0.416   1.376   0.766 -0.4345  0.0757  0.2535
   61HFI     C3 1216   0.629   1.172   0.654  0.0654 -0.3196 -0.1987
   61HFI     F4 1217   0.509   1.117   0.685  0.3201 -0.8629 -0.5256
   61HFI     F5 1218   0.722   1.118   0.743  0.1572  0.0592 -0.2185
   61HFI     F6 1219   0.655   1.126   0.521  0.7622  0.1364 -0.0564
   61HFI     H1 1220   0.813   1.341   0.723 -1.0097 -0.4956  0.2381
   61HFI     H2 1221   0.568   1.359   0.565 -0.4422  0.0466  0.5146
   62HFI     O1 1222   1.924   2.698   1.324  0.1860  0.4024  0.1685
   62HFI     C1 1223   2.000   2.637   1.431 -0.3181  0.3704  0.1636
   62HFI     C2 1224   1.904   2.550   1.522  0.6785  0.1518  1.1879
   62HFI     F1 1225   1.969   2.489   1.624 -0.3428  0.1191  0.4385
   62HFI     F2 1226   1.824   2.461   1.457  0.1562  0.2226  0.4876
   62HFI     F3 1227   1.821   2.642   1.576 -0.7208 -0.8392  0.1213
   62HFI     C3 1228   2.091   2.742   1.512  0.2416  0.9658 -0.1216
   62HFI     F4 1229   2.176   2.676   1.602  0.3948  0.5797  0.1030
   62HFI     F5 1230   2.020   2.838   1.579  0.3791 -0.0330  0.0568
   62HFI     F6 1231   2.173   2.796   1.424  0.0173 -0.8714 -0.0135
   62HFI     H1 1232   1.845   2.643   1.309  0.1349  0.6096 -0.3356
   62HFI     H2 1233   2.074   2.570   1.386 -0.7760  0.0873 -0.1763
   63HFI     O1 1234   2.989   1.212   0.211 -0.0600  0.1309 -0.4011
   63HFI     C1 1235   3.062   1.234   0.339 -0.0663  0.5347  0.7036
   63HFI     C2 1236   2.974   1.271   0.462  0.2442 -0.1377 -0.1922
   63HFI     F1 1237   2.949   1.410   0.480 -0.0340 -0.0966 -0.2294
   63HFI     F2 1238   3.028   1.214   0.573  0.5430 -0.1188 -0.6709
   63HFI     F3 1239   2.844   1.221   0.447 -0.7827 -0.1933 -0.0766
   63HFI     C3 1240   3.194   1.319   0.331 -0.6396  0.4833  0.1335
   63HFI     F4 1241   3.262   1.299   0.445 -0.5421 -0.3004  0.4358
   63HFI     F5 1242   3.179   1.453   0.304  0.0742 -0.0930 -0.1698
   63HFI     F6 1243   3.275   1.267   0.232 -0.0946 -0.1441 -0.0558
   63HFI     H1 1244   2.978   1.298   0.166  1.8204  1.7268  2.0683
   63HFI     H2 1245   3.109   1.138   0.365  0.1606  0.5951  0.5178
   64HFI     O1 1246   3.325   1.308   1.320  0.1939  0.0436  0.4006
   64HFI     C1 1247   3.185   1.277   1.363 -0.6797  1.0464  0.1570
   64HFI     C2 1248   3.068   1.347   1.281 -0.6611 -0.0325  0.2954
   64HFI     F1 1249   3.067   1.479   1.302 -0.3044 -0.0904  0.0740
   64HFI     F2 1250   2.944   1.305   1.308 -0.3521 -0.1212  0.7980
   64HFI     F3 1251   3.090   1.333   1.147  0.0477  0.3141 -0.0242
   64HFI     C3 1252   3.172   1.317   1.513  0.6580  0.3539 -0.1441
   64HFI     F4 1253   3.204   1.448   1.540  0.1833  0.6121 -0.3781
   64HFI     F5 1254   3.258   1.239   1.583  0.2028  0.3352  0.1718
   64HFI     F6 1255   3.050   1.299   1.568 -0.2062  0.2125  0.2577
   64HFI     H1 1256   3.346   1.401   1.336  2.2149 -0.1881 -0.7288
   64HFI     H2 1257   3.167   1.169   1.357 -0.1888  0.8885  1.3406
   65HFI     O1 1258   0.945   1.323   1.311 -0.3501 -0.2989 -0.0005
   65HFI     C1 1259   0.824   1.370   1.373  0.3204  0.2845  0.4959
   65HFI     C2 1260   0.757   1.495   1.304 -0.1131  0.5406  0.5228
   65HFI     F1 1261   0.778   1.481   1.173 -0.0356 -0.8077 -0.3397
   65HFI     F2 1262   0.804   1.614   1.355  0.1842  0.4979 -0.5900
   65HFI     F3 1263   0.625   1.499   1.324  0.2716 -0.6934 -0.3139
   65HFI     C3 1264   0.838   1.377   1.532 -0.1343  0.0091 -0.2643
   65HFI     F4 1265   0.836   1.255   1.580  0.2838 -0.1991  0.6714
   65HFI     F5 1266   0.746   1.453   1.595  0.1954 -0.7994  0.6211
   65HFI     F6 1267   0.959   1.421   1.563 -0.2692 -0.3088  0.3389
   65HFI     H1 1268   1.000   1.398   1.282  0.3091 -0.9044 -0.3180
   65HFI     H2 1269   0.740   1.300   1.365 -0.8216  1.4112  2.2904
   66HFI     O1 1270   3.403   0.166   0.025  0.3914 -0.2595  0.4840
   66HFI     C1 1271   3.367   0.113   0.160 -0.1544  0.3559  0.5620
   66HFI     C2 1272   3.224   0.142   0.201 -0.0698 -0.2712  0.2305
   66HFI     F1 1273   3.139   0.122   0.097  0.4023 -0.1382 -0.2628
   66HFI     F2 1274   3.214   0.270   0.240  0.0739  0.3044 -0.3153
   66HFI     F3 1275   3.182   0.063   0.300  0.4867 -0.3628  0.1716
   66HFI     C3 1276   3.477   0.142   0.272  0.1190  0.3945 -0.0155
   66HFI     F4 1277   3.521   0.266   0.257 -0.1159  0.0270  0.1775
   66HFI     F5 1278   3.584   0.062   0.263  0.0667  0.1632  0.5951
   66HFI     F6 1279   3.428   0.126   0.397  0.0760  0.0493 -0.3480
   66HFI     H1 1280   3.335   0.130  -0.035  0.2455  0.3648  0.2607
   66HFI     H2 1281   3.370   0.004   0.151  2.0994  0.4447 -0.0441
   67HFI     O1 1282   2.951   2.336   0.513 -0.0879 -0.6327  0.9066
   67HFI     C1 1283   2.880   2.244   0.600  0.4715 -0.3701  0.0579
   67HFI     C2 1284   2.963   2.211   0.723  0.2237 -0.3257  0.2330
   67HFI     F1 1285   3.002   2.316   0.792  0.5944 -0.1383  0.0580
   67HFI     F2 1286   3.079   2.150   0.689  0.4586 -0.2238  0.4102
   67HFI     F3 1287   2.893   2.131   0.806 -0.6847  0.3056 -0.1401
   67HFI     C3 1288   2.814   2.120   0.525  0.3554  0.1173  0.2905
   67HFI     F4 1289   2.727   2.155   0.423 -0.0818  0.1324 -0.5351
   67HFI     F5 1290   2.743   2.047   0.612 -0.1933  0.0957  0.0508
   67HFI     F6 1291   2.902   2.042   0.467 -0.6034 -0.5437 -0.3173
   67HFI     H1 1292   2.891   2.385   0.454 -0.1417  1.4717  2.6481
   67HFI     H2 1293   2.798   2.299   0.649 -0.6752 -1.8709 -0.1414
   68HFI     O1 1294   2.518   1.337   1.506 -0.0767  0.1147  0.2710
   68HFI     C1 1295   2.613   1.253   1.425  0.0274  0.5205 -0.0942
   68HFI     C2 1296   2.574   1.238   1.274  0.3010  1.1419  0.0017
   68HFI     F1 1297   2.528   1.357   1.227  0.4450 -0.3502 -0.2590
   68HFI     F2 1298   2.473   1.146   1.253  0.1030  0.1728  0.2918
   68HFI     F3 1299   2.679   1.203   1.198 -0.2160  0.6441 -0.4700
   68HFI     C3 1300   2.656   1.123   1.486  0.1122  0.7461  1.1167
   68HFI     F4 1301   2.748   1.057   1.413  0.2808 -0.1530 -0.0854
   68HFI     F5 1302   2.552   1.033   1.515  0.1537 -0.2476 -0.1180
   68HFI     F6 1303   2.721   1.142   1.601 -0.0484 -0.4739 -0.0650
   68HFI     H1 1304   2.426   1.311   1.490  0.5345 -1.1981 -1.1717
   68HFI     H2 1305   2.714   1.296   1.425  0.9032 -1.4378 -2.4450
   69HFI     O1 1306   1.538   2.808   3.602  0.0741 -0.1867 -0.4163
   69HFI     C1 1307   1.519   2.788   3.748 -0.1934  0.7153 -0.4074
   69HFI     C2 1308   1.571   2.911   3.821  0.1154  0.7432 -0.3936
   69HFI     F1 1309   1.501   3.026   3.779 -0.4238  0.2593  0.6057
   69HFI     F2 1310   1.701   2.923   3.784 -0.0432 -0.6681  0.5420
   69HFI     F3 1311   1.568   2.901   3.954  0.4727  0.0728 -0.2407
   69HFI     C3 1312   1.583   2.654   3.801  0.2841  0.0836 -0.1371
   69HFI     F4 1313   1.587   2.632   3.935 -0.3796 -0.2100 -0.0863
   69HFI     F5 1314   1.711   2.639   3.768 -0.1514  0.5122  0.2388
   69HFI     F6 1315   1.510   2.544   3.752 -0.0271  0.4711 -0.1488
   69HFI     H1 1316   1.631   2.784   3.587 -0.1475 -1.5735  0.3679
   69HFI     H2 1317   1.415   2.772   3.777 -0.5047 -2.4049 -2.9071
   70HFI     O1 1318   1.571   2.047   1.612 -0.1455 -0.1110 -0.3522
   70HFI     C1 1319   1.672   2.027   1.506  0.3156  0.0013  0.3890
   70HFI     C2 1320   1.635   2.123   1.380  0.4176 -0.5209 -0.1262
   70HFI     F1 1321   1.522   2.088   1.322 -0.2373 -0.0393  0.3522
   70HFI     F2 1322   1.733   2.120   1.288  0.6676 -0.0029 -0.3703
   70HFI     F3 1323   1.615   2.251   1.424  0.2417 -0.4192  0.0271
   70HFI     C3 1324   1.693   1.877   1.469 -0.2738  0.2500  0.1573
   70HFI     F4 1325   1.609   1.832   1.373 -0.1844  0.1612  0.1385
   70HFI     F5 1326   1.685   1.786   1.573 -0.2723 -0.0938 -0.3708
   70HFI     F6 1327   1.814   1.876   1.409  0.1875 -0.1875 -0.0009
   70HFI     H1 1328   1.548   1.960   1.648  1.3699  0.4749  2.1681
   70HFI     H2 1329   1.768   2.065   1.544  0.3813  1.5796 -1.3017
   71HFI     O1 1330   2.802   1.151   3.566  0.1023  0.5016  0.4872
   71HFI     C1 1331   2.769   1.005   3.568 -0.1470  0.2277  1.2898
   71HFI     C2 1332   2.880   0.903   3.616  0.1046 -0.3175 -0.5712
   71HFI     F1 1333   2.971   0.886   3.519 -0.3472 -0.0127 -0.5978
   71HFI     F2 1334   2.827   0.783   3.650  0.2121 -0.0766  0.3269
   71HFI     F3 1335   2.942   0.953   3.723  0.0309  0.3386 -0.6971
   71HFI     C3 1336   2.708   0.969   3.428 -0.1495  0.3451  0.2584
   71HFI     F4 1337   2.803   0.991   3.328  0.1270  0.4847 -0.3153
   71HFI     F5 1338   2.597   1.045   3.407 -0.3422 -0.5528  0.1115
   71HFI     F6 1339   2.658   0.838   3.425 -0.1224  0.2816  0.0282
   71HFI     H1 1340   2.892   1.171   3.598  0.9255 -0.1454 -1.3480
   71HFI     H2 1341   2.696   0.987   3.648  0.8025 -0.2825  2.0640
   72HFI     O1 1342   0.011   1.002   0.381 -0.1516 -0.1773 -0.0639
   72HFI     C1 1343   0.102   0.957   0.278  0.5636  0.1169  0.0758
   72HFI     C2 1344   0.090   0.800   0.225  0.5407 -0.1878  0.0001
   72HFI     F1 1345   0.173   0.774   0.123  0.3495  0.0531  0.3291
   72HFI     F2 1346  -0.037   0.766   0.191  0.0497  0.0858 -0.6146
   72HFI     F3 1347   0.114   0.724   0.332 -0.1071 -0.2176 -0.2644
   72HFI     C3 1348   0.248   0.984   0.314 -0.4204 -0.3974  0.1954
   72HFI     F4 1349   0.264   1.110   0.343  0.3155  0.3068  0.0176
   72HFI     F5 1350   0.336   0.970   0.213 -0.4401 -0.3721 -0.0653
   72HFI     F6 1351   0.289   0.909   0.421  0.0444  0.2605  0.9455
   72HFI     H1 1352   0.065   1.039   0.453 -1.6655 -0.3827  1.2123
   72HFI     H2 1353   0.096   1.008   0.181  0.2833 -1.2196 -0.6150
   73HFI     O1 1354   2.178   3.384   0.046 -0.5148 -0.4019  0.3898
   73HFI     C1 1355   2.055   3.393  -0.040  0.8262 -1.0976  0.3505
   73HFI     C2 1356   2.010   3.547  -0.041 -0.5744  0.3286  0.2864
   73HFI     F1 1357   1.882   3.577  -0.091  0.2964  0.2897  0.5104
   73HFI     F2 1358   2.105   3.616  -0.118  0.4766 -0.1035  0.1237
   73HFI     F3 1359   2.013   3.598   0.082 -0.5714 -0.4721  0.6865
   73HFI     C3 1360   1.933   3.301  -0.004 -0.1251  0.6767 -0.0653
   73HFI     F4 1361   1.886   3.327   0.117  0.1006 -0.2729 -0.4842
   73HFI     F5 1362   1.967   3.169   0.004  0.3217  0.0268  0.3169
   73HFI     F6 1363   1.835   3.306  -0.088  0.1723 -0.2627 -0.2097
   73HFI     H1 1364   2.152   3.392   0.140  1.2448  0.5509  0.8322
   73HFI     H2 1365   2.087   3.367  -0.141 -0.1403  0.8017 -0.4683
   74HFI     O1 1366   2.394   2.916   1.611  0.1360  0.5103 -0.7696
   74HFI     C1 1367   2.422   2.994   1.497  0.0253 -0.6829  0.2266
   74HFI     C2 1368   2.569   3.006   1.489  0.1608 -0.0781  0.1582
   74HFI     F1 1369   2.616   3.066   1.598  0.1724  0.0817 -0.1855
   74HFI     F2 1370   2.606   3.078   1.385 -0.1055  0.1721  0.3472
   74HFI     F3 1371   2.629   2.882   1.473  0.5477 -0.4361 -0.4264
   74HFI     C3 1372   2.339   3.127   1.491  0.1140  0.4570  0.0051
   74HFI     F4 1373   2.350   3.186   1.367 -0.3606  0.5284 -0.1476
   74HFI     F5 1374   2.366   3.222   1.582  0.0607  0.1455 -0.7165
   74HFI     F6 1375   2.207   3.096   1.507  0.4897  0.0802  0.0101
   74HFI     H1 1376   2.312   2.935   1.660  0.2337  1.4488 -0.9706
   74HFI     H2 1377   2.386   2.939   1.409  0.5553 -0.4203 -0.1562
   75HFI     O1 1378   1.452   0.045   1.266  0.9903  0.3820 -0.0972
   75HFI     C1 1379   1.423   0.059   1.119  0.5100  0.1380 -0.1404
   75HFI     C2 1380   1.463  -0.069   1.055  0.2916  0.9072  0.2850
   75HFI     F1 1381   1.407  -0.172   1.126  0.2601  0.2104  0.1394
   75HFI     F2 1382   1.594  -0.099   1.068  0.1150 -0.2790  0.0861
   75HFI     F3 1383   1.427  -0.091   0.929  0.2458 -0.1711 -0.1492
   75HFI     C3 1384   1.484   0.185   1.055 -0.3940  0.4763 -0.1022
   75HFI     F4 1385   1.444   0.299   1.118  0.0539  0.0223 -0.0118
   75HFI     F5 1386   1.438   0.192   0.922  0.8000  0.1018 -1.0039
   75HFI     F6 1387   1.618   0.176   1.065  0.0369  0.4384  0.0106
   75HFI     H1 1388   1.449   0.135   1.304  0.4125  0.1462  0.4197
   75HFI     H2 1389   1.315   0.068   1.102  0.1089 -2.4792  0.8590
   76HFI     O1 1390   3.246   0.311   0.588  0.7380 -0.1538  0.1584
   76HFI     C1 1391   3.371   0.347   0.652 -0.9193 -0.0867  0.4993
   76HFI     C2 1392   3.353   0.394   0.808 -0.1289  0.3850 -0.1730
   76HFI     F1 1393   3.276   0.301   0.868 -0.0838  0.3898 -0.0108
   76HFI     F2 1394   3.303   0.513   0.819 -0.3318 -0.5245 -0.0149
   76HFI     F3 1395   3.464   0.385   0.874 -1.1351 -0.0956 -0.1124
   76HFI     C3 1396   3.439   0.465   0.576 -0.4096  0.2723 -0.9532
   76HFI     F4 1397   3.552   0.503   0.649 -0.3920  0.4582  0.0908
   76HFI     F5 1398   3.351   0.575   0.561  0.7811  0.1738  0.7590
   76HFI     F6 1399   3.486   0.430   0.452  0.4594  0.4587  0.5324
   76HFI     H1 1400   3.183   0.382   0.570  2.7809  1.7572  0.4271
   76HFI     H2 1401   3.442   0.264   0.651 -0.1180  0.5842 -0.9319
   77HFI     O1 1402   1.530   1.669   1.028  0.2402  0.0081 -0.0032
   77HFI     C1 1403   1.539   1.524   1.027  0.0300  0.1642  0.3862
   77HFI     C2 1404   1.681   1.474   1.006  0.1785 -0.2881 -0.3736
   77HFI     F1 1405   1.720   1.474   0.875 -0.1130  0.2404 -0.2248
   77HFI     F2 1406   1.711   1.355   1.057  0.5221  0.8709  0.3916
   77HFI     F3 1407   1.770   1.558   1.067  0.3955 -0.2002 -0.1842
   77HFI     C3 1408   1.438   1.463   0.932  0.5970 -0.1061 -0.1773
   77HFI     F4 1409   1.323   1.441   0.992  0.0570 -0.2080  0.0404
   77HFI     F5 1410   1.485   1.340   0.885 -0.2799 -0.1934 -0.5719
   77HFI     F6 1411   1.413   1.547   0.830 -0.0568  0.2967  0.3945
   77HFI     H1 1412   1.590   1.714   1.089 -0.5915  1.9764 -0.5875
   77HFI     H2 1413   1.512   1.485   1.126 -1.0592 -0.6165 -0.2058
   78HFI     O1 1414   2.378   2.271   0.748 -0.5461  0.5212 -0.1302
   78HFI     C1 1415   2.336   2.288   0.607 -0.6706 -0.7517  0.1307
   78HFI     C2 1416   2.363   2.167   0.521 -0.1100  0.4289  0.2685
   78HFI     F1 1417   2.340   2.180   0.390 -1.4106 -0.3202 -0.0546
   78HFI     F2 1418   2.284   2.058   0.563  0.1896 -0.7433  0.0432
   78HFI     F3 1419   2.487   2.124   0.535 -0.4080  0.6886  0.0357
   78HFI     C3 1420   2.395   2.420   0.555  0.7294 -0.0969  0.4196
   78HFI     F4 1421   2.318   2.469   0.457 -0.4599 -0.0233 -0.4978
   78HFI     F5 1422   2.523   2.406   0.504 -0.4072 -0.2320  0.5278
   78HFI     F6 1423   2.406   2.509   0.654  0.3909  0.3044  0.6307
   78HFI     H1 1424   2.387   2.176   0.768 -2.0713  0.1584 -1.0566
   78HFI     H2 1425   2.228   2.302   0.605 -0.5558  0.0291 -0.6132
   79HFI     O1 1426   0.556   0.672   0.413 -0.4547 -0.4683 -0.0078
   79HFI     C1 1427   0.470   0.577   0.485 -0.2372 -0.3529  0.7681
   79HFI     C2 1428   0.535   0.527   0.620 -0.6446  0.7602  0.0492
   79HFI     F1 1429   0.607   0.413   0.602  0.1350 -0.5875  0.7849
   79HFI     F2 1430   0.438   0.492   0.711 -0.4936 -0.0984  0.1167
   79HFI     F3 1431   0.617   0.625   0.669  0.5231  0.2879  0.4384
   79HFI     C3 1432   0.421   0.468   0.390  0.0488  0.8734 -0.1312
   79HFI     F4 1433   0.517   0.395   0.329  0.0058 -0.1689  0.7639
   79HFI     F5 1434   0.338   0.515   0.293  0.2904  0.3298  0.2195
   79HFI     F6 1435   0.350   0.373   0.459  0.4136 -0.2338  0.3371
   79HFI     H1 1436   0.557   0.762   0.451 -0.6026  0.1849 -1.5139
   79HFI     H2 1437   0.379   0.636   0.506  0.9981  1.1619  2.0185
   80HFI     O1 1438   0.507   0.786   2.889 -0.3449 -0.2499 -0.3448
   80HFI     C1 1439   0.403   0.707   2.826  0.1077 -0.4730  0.0749
   80HFI     C2 1440   0.452   0.571   2.791 -0.3119 -0.0205  0.2554
   80HFI     F1 1441   0.525   0.580   2.682  0.1181  0.3365 -0.3420
   80HFI     F2 1442   0.352   0.487   2.767 -0.0319 -0.1513  0.7465
   80HFI     F3 1443   0.532   0.511   2.886 -0.2363  0.3681  0.5899
   80HFI     C3 1444   0.335   0.783   2.709 -0.6898  0.2381  0.1542
   80HFI     F4 1445   0.418   0.824   2.607  0.2890  0.4164  0.0358
   80HFI     F5 1446   0.275   0.893   2.750  0.2498  0.1729 -0.5603
   80HFI     F6 1447   0.237   0.710   2.647  0.1282 -0.1611  0.0627
   80HFI     H1 1448   0.561   0.817   2.814  0.6855 -0.9974  0.0661
   80HFI     H2 1449   0.329   0.692   2.906 -0.3738  1.1560 -0.0421
   81HFI     O1 1450   0.868   1.024   1.361  0.0691  0.2820 -0.5409
   81HFI     C1 1451   0.956   0.958   1.459 -0.1839  0.0236  0.9934
   81HFI     C2 1452   1.090   1.019   1.466  0.5397  0.3648 -0.1038
   81HFI     F1 1453   1.088   1.149   1.495  0.2202 -0.5095 -0.3130
   81HFI     F2 1454   1.154   1.006   1.350  0.2328  0.5437 -0.7060
   81HFI     F3 1455   1.171   0.960   1.560  0.4268 -0.6420  0.1066
   81HFI     C3 1456   0.955   0.809   1.434  0.3773  0.1728  0.2708
   81HFI     F4 1457   1.043   0.734   1.512  0.3341 -0.1082 -0.2661
   81HFI     F5 1458   0.981   0.778   1.305  0.1511  0.3111 -0.3761
   81HFI     F6 1459   0.827   0.769   1.459 -0.2003  0.5847 -0.1091
   81HFI     H1 1460   0.908   1.108   1.334 -0.7441  0.3081 -1.6983
   81HFI     H2 1461   0.903   0.969   1.555 -3.7744 -2.6519 -0.5552
   82HFI     O1 1462   1.914   0.388   1.484 -0.4303 -0.2857  0.3365
   82HFI     C1 1463   1.768   0.398   1.492  0.2726  0.4099 -0.4518
   82HFI     C2 1464   1.691   0.315   1.387  0.6407 -0.5092  0.0282
   82HFI     F1 1465   1.695   0.375   1.271 -0.0786 -0.1361 -0.0299
   82HFI     F2 1466   1.560   0.293   1.424 -0.0764  0.0124  0.3861
   82HFI     F3 1467   1.742   0.194   1.370 -0.0116 -0.3009 -0.1769
   82HFI     C3 1468   1.718   0.545   1.503  0.7124  0.6682 -0.1680
   82HFI     F4 1469   1.585   0.541   1.541  0.4331  0.2646  0.0397
   82HFI     F5 1470   1.738   0.613   1.388  0.0221  0.2125  0.4193
   82HFI     F6 1471   1.782   0.598   1.601  0.4927 -0.0351 -0.4656
   82HFI     H1 1472   1.947   0.409   1.395  2.0944 -1.3690  0.9580
   82HFI     H2 1473   1.733   0.344   1.581  0.7340 -0.6042 -0.8712
   83HFI     O1 1474   2.914   0.221   1.134  0.5086 -0.4663 -0.7931
   83HFI     C1 1475   2.957   0.329   1.050  0.0853  0.0878 -0.3427
   83HFI     C2 1476   2.999   0.448   1.133  0.5865  0.0933 -0.1782
   83HFI     F1 1477   3.035   0.561   1.067  0.2925  0.0253  0.3269
   83HFI     F2 1478   3.112   0.405   1.196 -0.2900  0.0335 -0.4439
   83HFI     F3 1479   2.910   0.478   1.229  0.0837 -0.3816  0.1315
   83HFI     C3 1480   2.852   0.376   0.945  0.8429  0.1066  0.1292
   83HFI     F4 1481   2.904   0.466   0.856 -0.6466  0.7425 -0.7504
   83HFI     F5 1482   2.750   0.437   1.005  0.3658 -0.6882  0.2438
   83HFI     F6 1483   2.794   0.278   0.880 -0.3049  0.2750  0.1655
   83HFI     H1 1484   2.827   0.245   1.171  1.2522 -0.3693  0.9388
   83HFI     H2 1485   3.046   0.305   0.992 -0.6934 -2.0829 -0.6875
   84HFI     O1 1486   3.064   2.399   2.899 -0.1587 -0.2592  0.0808
   84HFI     C1 1487   3.158   2.483   2.823 -0.1640 -0.6454  0.8707
   84HFI     C2 1488   3.274   2.405   2.770  0.3503  0.6172  0.2817
   84HFI     F1 1489   3.350   2.346   2.875  0.1623  0.4801  0.4578
   84HFI     F2 1490   3.362   2.473   2.690  0.2551 -0.1922 -0.3165
   84HFI     F3 1491   3.222   2.304   2.700 -0.0518 -0.4951  0.1153
   84HFI     C3 1492   3.209   2.596   2.906 -0.2322  0.1280 -0.3057
   84HFI     F4 1493   3.275   2.564   3.023 -0.0156  0.0190 -0.0349
   84HFI     F5 1494   3.101   2.671   2.938  0.1776 -0.0088  0.0785
   84HFI     F6 1495   3.288   2.679   2.832  0.4876 -0.3570  0.1162
   84HFI     H1 1496   3.121   2.338   2.949  2.1415  0.3812 -1.7200
   84HFI     H2 1497   3.104   2.531   2.742 -0.3504  0.1106  1.4377
   85HFI     O1 1498   2.191   1.642   1.129 -0.1234  0.1217  0.0614
   85HFI     C1 1499   2.282   1.553   1.060  0.2716 -0.1436 -0.6294
   85HFI     C2 1500   2.336   1.615   0.927 -0.0827 -0.8666 -0.4161
   85HFI     F1 1501   2.362   1.745   0.948  0.5135 -0.4075  0.1905
   85HFI     F2 1502   2.261   1.612   0.813 -0.6360 -0.4775 -0.0343
   85HFI     F3 1503   2.454   1.549   0.904 -0.2541  0.4276 -0.0967
   85HFI     C3 1504   2.218   1.414   1.032  0.1574  0.7656  0.0229
   85HFI     F4 1505   2.305   1.328   0.968  0.2638  0.2267  0.0457
   85HFI     F5 1506   2.108   1.416   0.954 -0.0852 -0.0774  0.4136
   85HFI     F6 1507   2.175   1.357   1.140  0.0215  0.0413  0.1659
   85HFI     H1 1508   2.119   1.672   1.071  0.4424  1.5122  0.0607
   85HFI     H2 1509   2.372   1.526   1.117 -0.0836 -0.7373 -0.3361
   86HFI     O1 1510   3.338   3.027   1.367 -0.6746  0.1207 -0.3673
   86HFI     C1 1511   3.469   2.963   1.388 -0.1710  0.0764 -0.3144
   86HFI     C2 1512   3.530   2.992   1.537 -0.2220  0.2907  0.5195
   86HFI     F1 1513   3.663   2.998   1.541  0.4630  0.0885  0.0863
   86HFI     F2 1514   3.501   2.882   1.610 -0.1865 -0.2037 -0.5405
   86HFI     F3 1515   3.482   3.104   1.588 -0.3700 -0.0862  0.4508
   86HFI     C3 1516   3.566   3.004   1.278 -0.2091 -0.0637 -0.5959
   86HFI     F4 1517   3.659   2.912   1.266 -0.3064  0.3852 -0.1185
   86HFI     F5 1518   3.612   3.124   1.295 -0.3290 -0.3843 -0.2070
   86HFI     F6 1519   3.500   3.006   1.164  0.4731 -0.5895 -0.9036
   86HFI     H1 1520   3.339   3.118   1.402 -1.5976  0.0285 -0.0823
   86HFI     H2 1521   3.454   2.855   1.375 -1.4646  0.2973 -0.6782
   87HFI     O1 1522   3.084   3.431   0.646  1.3766  0.0724  0.1611
   87HFI     C1 1523   2.955   3.358   0.647  0.2702  0.3532  0.3849
   87HFI     C2 1524   2.967   3.209   0.647  0.0573  0.0194 -0.5879
   87HFI     F1 1525   2.988   3.166   0.522  0.2625 -0.4805  0.0505
   87HFI     F2 1526   2.857   3.146   0.687  0.2249  0.2383 -0.8883
   87HFI     F3 1527   3.071   3.167   0.722 -0.1211 -0.3314  0.1672
   87HFI     C3 1528   2.848   3.415   0.549  0.0672  0.0221  0.4968
   87HFI     F4 1529   2.894   3.405   0.419  0.1017  0.1743 -0.3706
   87HFI     F5 1530   2.832   3.552   0.578 -0.2331  0.8513  0.0463
   87HFI     F6 1531   2.733   3.346   0.559 -0.0702  0.1080  0.2716
   87HFI     H1 1532   3.063   3.521   0.617  0.7460 -0.4187 -0.9731
   87HFI     H2 1533   2.911   3.391   0.742 -2.9141 -1.6486 -0.3127
   88HFI     O1 1534   3.198   2.893   0.303  0.6020  0.3325  0.7237
   88HFI     C1 1535   3.275   2.988   0.210 -0.4534  0.1299 -0.2304
   88HFI     C2 1536   3.391   2.912   0.144  0.0991 -0.1956  0.3539
   88HFI     F1 1537   3.460   2.983   0.059  0.0160 -0.2286 -0.6331
   88HFI     F2 1538   3.354   2.802   0.082  0.1898  0.7182  0.8080
   88HFI     F3 1539   3.477   2.878   0.237  0.4614 -0.3525 -0.6643
   88HFI     C3 1540   3.324   3.117   0.288 -0.3198  0.4767  0.4747
   88HFI     F4 1541   3.419   3.087   0.382  0.1202 -0.4185  0.1942
   88HFI     F5 1542   3.230   3.189   0.352  0.3778 -0.1674  0.2757
   88HFI     F6 1543   3.380   3.201   0.205  0.0112 -0.1455 -0.3629
   88HFI     H1 1544   3.253   2.859   0.376  0.5109 -0.5454  0.3880
   88HFI     H2 1545   3.215   3.027   0.127 -1.5516 -1.2907 -0.1174
   89HFI     O1 1546   0.291   0.989   1.326  0.5396 -0.2891  0.2726
   89HFI     C1 1547   0.403   1.065   1.380  0.1097  0.0067 -0.7014
   89HFI     C2 1548   0.460   0.997   1.507 -0.0728  0.9353  0.4459
   89HFI     F1 1549   0.489   0.864   1.477 -0.2198 -0.0570  0.0922
   89HFI     F2 1550   0.370   1.005   1.613 -0.3556  0.0822  0.5207
   89HFI     F3 1551   0.575   1.055   1.555  0.3145 -0.1700 -0.4325
   89HFI     C3 1552   0.371   1.215   1.415  0.6181  0.1885 -0.0538
   89HFI     F4 1553   0.257   1.217   1.486 -0.0044 -0.4921  0.0858
   89HFI     F5 1554   0.353   1.281   1.297  0.0948  0.3596 -0.2679
   89HFI     F6 1555   0.468   1.274   1.486 -0.2104  0.0955 -0.3127
   89HFI     H1 1556   0.226   0.972   1.396  0.1257 -2.8391 -0.7017
   89HFI     H2 1557   0.492   1.056   1.317  1.5545  0.8568  1.1727
   90HFI     O1 1558   1.085   0.969   1.059 -0.4931 -0.1453 -0.0954
   90HFI     C1 1559   1.061   1.057   0.945 -0.2783  0.2962  0.6641
   90HFI     C2 1560   1.196   1.077   0.871 -0.1476 -0.0576 -0.3820
   90HFI     F1 1561   1.196   1.193   0.806  0.2245 -0.1537  0.2977
   90HFI     F2 1562   1.217   0.972   0.790 -0.3339  0.2095  0.2439
   90HFI     F3 1563   1.295   1.085   0.955  0.2965 -0.3781  0.7256
   90HFI     C3 1564   1.001   1.195   0.982 -0.3741  0.5202 -0.4278
   90HFI     F4 1565   0.896   1.170   1.069 -0.6608 -0.0083  0.2817
   90HFI     F5 1566   0.951   1.260   0.873 -0.4366 -1.0434  0.1397
   90HFI     F6 1567   1.082   1.280   1.046 -0.2897 -0.1921  0.0997
   90HFI     H1 1568   1.015   0.904   1.076 -0.8438  0.4142  0.5923
   90HFI     H2 1569   0.994   1.009   0.873 -0.8216 -1.4588  2.3271
   91HFI     O1 1570   1.759   2.686   0.925  0.0456  0.5288 -0.4331
   91HFI     C1 1571   1.770   2.544   0.936 -0.1711 -0.1952 -0.5374
   91HFI     C2 1572   1.744   2.478   0.798  0.2096  0.1159 -0.3871
   91HFI     F1 1573   1.772   2.347   0.793 -0.0938 -0.2469 -0.4177
   91HFI     F2 1574   1.824   2.527   0.706  0.3117 -0.1708  0.1793
   91HFI     F3 1575   1.610   2.485   0.759 -0.6025 -0.1276 -0.1151
   91HFI     C3 1576   1.695   2.483   1.055  0.1907  0.7872  0.4451
   91HFI     F4 1577   1.566   2.509   1.047 -0.0269  0.2252 -0.5387
   91HFI     F5 1578   1.751   2.533   1.168  0.1984  0.1828 -0.1197
   91HFI     F6 1579   1.714   2.346   1.065 -0.2740 -0.2611  0.7239
   91HFI     H1 1580   1.664   2.706   0.928 -0.1855 -0.4376 -1.0032
   91HFI     H2 1581   1.875   2.514   0.953 -0.2454  0.9103  2.1571
   92HFI     O1 1582   3.165   2.920   0.579  0.7434 -0.0337 -0.3418
   92HFI     C1 1583   3.211   2.826   0.682 -0.2580 -0.2666 -0.5313
   92HFI     C2 1584   3.197   2.680   0.624 -0.0198 -0.4564  0.0886
   92HFI     F1 1585   3.253   2.587   0.708  0.3009  0.1360 -0.2270
   92HFI     F2 1586   3.254   2.675   0.505 -0.3117 -0.1022  0.2413
   92HFI     F3 1587   3.072   2.644   0.601  0.3592 -0.9435 -0.1043
   92HFI     C3 1588   3.160   2.861   0.826 -0.4628 -0.1833  0.3222
   92HFI     F4 1589   3.208   2.980   0.868 -0.5651  0.4561 -0.8793
   92HFI     F5 1590   3.196   2.765   0.913 -0.4246  0.1414  0.1800
   92HFI     F6 1591   3.024   2.867   0.820  0.2046  0.4857  0.3290
   92HFI     H1 1592   3.077   2.957   0.599  0.5025 -0.6417 -0.2627
   92HFI     H2 1593   3.319   2.816   0.695 -0.1375  1.5330 -0.1576
   93HFI     O1 1594   1.268   1.960   1.006  0.1169  0.0657  0.1652
   93HFI     C1 1595   1.308   2.098   1.006 -0.1954 -0.5130  0.6352
   93HFI     C2 1596   1.191   2.197   0.967 -0.0662  0.8182 -0.4947
   93HFI     F1 1597   1.169   2.184   0.838 -0.0971  0.4447  0.0475
   93HFI     F2 1598   1.227   2.323   0.990 -0.0009 -0.4560  0.0552
   93HFI     F3 1599   1.074   2.176   1.029 -0.4402  0.1288 -0.2495
   93HFI     C3 1600   1.432   2.112   0.911 -0.3317  0.1201  0.3778
   93HFI     F4 1601   1.539   2.059   0.977  0.0636  0.9551 -0.4172
   93HFI     F5 1602   1.459   2.238   0.877 -0.3206 -0.2583 -0.2065
   93HFI     F6 1603   1.420   2.053   0.794  0.3453 -0.4413  0.4906
   93HFI     H1 1604   1.201   1.947   0.937 -0.6032 -1.1353  1.0875
   93HFI     H2 1605   1.339   2.126   1.107 -2.0389 -0.1413  1.1148
   94HFI     O1 1606   0.615   0.457   3.236 -0.1203 -0.7562  0.1958
   94HFI     C1 1607   0.739   0.390   3.278 -0.4347 -0.5916  0.3736
   94HFI     C2 1608   0.777   0.283   3.166  0.4811 -1.0271 -0.5360
   94HFI     F1 1609   0.803   0.342   3.053  0.1694  0.0628 -0.2374
   94HFI     F2 1610   0.684   0.193   3.142 -0.3354  0.2257  0.6044
   94HFI     F3 1611   0.889   0.216   3.191 -0.2727  0.1092 -0.0130
   94HFI     C3 1612   0.704   0.335   3.420 -0.9398  0.0179 -0.0796
   94HFI     F4 1613   0.795   0.252   3.472  0.0934  0.6464 -0.5951
   94HFI     F5 1614   0.591   0.263   3.423  0.0732 -0.3495  0.2011
   94HFI     F6 1615   0.692   0.444   3.506  0.7744 -0.9526 -0.2580
   94HFI     H1 1616   0.572   0.413   3.161 -1.3631  2.5484 -1.0971
   94HFI     H2 1617   0.829   0.452   3.289 -0.2138 -0.7731 -0.3676
   95HFI     O1 1618   2.863   2.897   0.509  0.2842  0.3008  0.3255
   95HFI     C1 1619   2.716   2.906   0.512 -0.7848 -0.2587  0.1072
   95HFI     C2 1620   2.655   2.764   0.527  1.2339  0.7620 -0.0959
   95HFI     F1 1621   2.676   2.721   0.661 -0.4108 -0.4545  0.2554
   95HFI     F2 1622   2.706   2.669   0.442 -0.2731 -0.2413 -0.4915
   95HFI     F3 1623   2.521   2.764   0.506  0.4241 -0.2305  0.4586
   95HFI     C3 1624   2.640   2.986   0.396  0.1580  0.5707  0.1590
   95HFI     F4 1625   2.609   2.915   0.292  0.2695  0.2207  0.0812
   95HFI     F5 1626   2.701   3.101   0.351  0.1968 -0.5808 -0.6124
   95HFI     F6 1627   2.517   3.026   0.438  0.0607 -0.3291  0.2275
   95HFI     H1 1628   2.893   2.845   0.432 -0.0948 -1.1948  1.1646
   95HFI     H2 1629   2.682   2.946   0.609 -0.5820 -1.7901  0.8285
   96HFI     O1 1630   2.479   0.330   3.251 -0.0905 -0.8939 -0.1377
   96HFI     C1 1631   2.400   0.276   3.360 -0.0442 -0.6948  0.1679
   96HFI     C2 1632   2.494   0.270   3.489  0.4250 -0.4358 -0.5350
   96HFI     F1 1633   2.525   0.397   3.519 -0.2312 -0.0807 -0.2830
   96HFI     F2 1634   2.608   0.203   3.465  0.3950 -0.0384 -0.1147
   96HFI     F3 1635   2.426   0.220   3.596 -0.7278  0.6104 -0.0441
   96HFI     C3 1636   2.331   0.142   3.322 -0.1054 -0.2143 -0.4587
   96HFI     F4 1637   2.413   0.036   3.337  0.0036  0.3093  1.2040
   96HFI     F5 1638   2.278   0.145   3.194 -0.1743 -0.4115 -0.1907
   96HFI     F6 1639   2.231   0.125   3.411  0.1080  0.1447  0.2634
   96HFI     H1 1640   2.458   0.424   3.243  1.4874 -0.5596 -0.5449
   96HFI     H2 1641   2.312   0.338   3.375 -0.8948 -1.5868 -0.9548
   97HFI     O1 1642   2.907   0.820   1.294 -0.1618  0.4679 -0.2330
   97HFI     C1 1643   2.975   0.767   1.408  0.2861  0.2414  0.2551
   97HFI     C2 1644   2.876   0.702   1.516 -0.1959 -0.1924 -0.1077
   97HFI     F1 1645   2.821   0.794   1.591  0.5646  0.3813 -0.1199
   97HFI     F2 1646   2.940   0.615   1.602  0.2515  0.2896 -0.9349
   97HFI     F3 1647   2.771   0.636   1.460 -0.2098 -0.4276 -0.5771
   97HFI     C3 1648   3.062   0.884   1.473  0.7391 -0.0963 -0.0100
   97HFI     F4 1649   3.147   0.931   1.380 -0.1847  0.1769  0.2941
   97HFI     F5 1650   3.125   0.845   1.586 -0.1304 -0.3902  0.8679
   97HFI     F6 1651   2.981   0.989   1.516  0.0276 -0.4123 -0.3802
   97HFI     H1 1652   2.858   0.901   1.315 -0.9203 -0.4928  1.8252
   97HFI     H2 1653   3.051   0.693   1.382  1.8444  1.6765  0.5869
   98HFI     O1 1654   1.110   1.550   1.338  0.3258 -0.0403  0.5367
   98HFI     C1 1655   1.135   1.695   1.372 -0.0544  0.3498 -0.4756
   98HFI     C2 1656   1.267   1.733   1.299  0.0729  0.3539 -0.3185
   98HFI     F1 1657   1.289   1.861   1.303  0.0568  0.6707 -0.0636
   98HFI     F2 1658   1.278   1.696   1.166 -0.6896  0.2047  0.4771
   98HFI     F3 1659   1.375   1.680   1.364 -0.4897 -0.8763 -0.3706
   98HFI     C3 1660   1.140   1.731   1.526  0.3794 -0.6180 -0.1743
   98HFI     F4 1661   1.226   1.644   1.596  0.0597  0.4136 -0.1066
   98HFI     F5 1662   1.022   1.723   1.581 -0.4427 -0.0196  0.2878
   98HFI     F6 1663   1.184   1.853   1.545  0.3742  0.0251  0.3427
   98HFI     H1 1664   1.190   1.502   1.365  0.3331 -0.2550  0.1366
   98HFI     H2 1665   1.057   1.762   1.335  1.0572  2.0909  0.2692
   99HFI     O1 1666   3.039   0.463   0.511 -0.0339 -0.3772 -0.1093
   99HFI     C1 1667   2.998   0.490   0.375  0.2215 -0.3700 -0.7836
   99HFI     C2 1668   2.956   0.637   0.358  0.4383  0.4102  0.1248
   99HFI     F1 1669   2.839   0.665   0.418  0.1016  0.2821 -0.1877
   99HFI     F2 1670   2.950   0.679   0.227 -0.3759 -0.3784 -0.0687
   99HFI     F3 1671   3.048   0.712   0.425 -0.0431 -0.4696  0.0006
   99HFI     C3 1672   2.907   0.390   0.303  0.0702 -0.0906 -0.8261
   99HFI     F4 1673   2.904   0.396   0.166 -0.0407  0.3019  0.0684
   99HFI     F5 1674   2.779   0.405   0.346 -0.1936 -0.1865  0.1157
   99HFI     F6 1675   2.942   0.263   0.338 -0.1702 -0.5475  0.2551
   99HFI     H1 1676   2.976   0.512   0.567  0.4886  0.9287 -0.6471
   99HFI     H2 1677   3.090   0.462   0.323  0.7243 -1.8310  0.8533
  100HFI     O1 1678   2.663   2.508   1.336 -0.3798  0.1006  0.2302
  100HFI     C1 1679   2.587   2.414   1.418 -0.1185 -0.9205  0.5188
  100HFI     C2 1680   2.474   2.486   1.494 -0.3693 -0.7804  0.1043
  100HFI     F1 1681   2.372   2.545   1.420 -0.1373  0.2185 -0.6027
  100HFI     F2 1682   2.521   2.589   1.573 -0.2595 -0.6970 -0.5088
  100HFI     F3 1683   2.414   2.406   1.580  0.2040  0.2623 -0.0568
  100HFI     C3 1684   2.674   2.320   1.496  0.4947 -0.9704 -1.1863
  100HFI     F4 1685   2.741   2.388   1.591  0.1371 -0.1224 -0.2507
  100HFI     F5 1686   2.762   2.273   1.413 -0.0638 -0.1016  0.5367
  100HFI     F6 1687   2.614   2.210   1.553 -0.1830  0.0055  0.6410
  100HFI     H1 1688   2.759   2.504   1.354 -0.2340  1.8764 -0.0544
  100HFI     H2 1689   2.532   2.340   1.358  0.0459  0.2000 -1.0239
  101HFI     O1 1690   2.148   0.320   0.880  0.0772  0.1488 -0.0499
  101HFI     C1 1691   2.031   0.348   0.966 -0.4998 -0.5469  0.6723
  101HFI     C2 1692   1.909   0.384   0.873  0.2090  0.2468  0.6584
  101HFI     F1 1693   1.924   0.510   0.819 -0.3617 -0.1950  0.4798
  101HFI     F2 1694   1.787   0.390   0.924  0.3518 -0.4249 -0.4130
  101HFI     F3 1695   1.910   0.300   0.770 -0.2972  0.5836  0.1366
  101HFI     C3 1696   2.063   0.454   1.078 -0.6701 -1.1445 -0.3276
  101HFI     F4 1697   1.966   0.465   1.170  0.2275 -0.0352 -0.1199
  101HFI     F5 1698   2.082   0.571   1.025  0.2585 -0.6013  0.3939
  101HFI     F6 1699   2.176   0.431   1.150  0.0465  0.2884  0.0469
  101HFI     H1 1700   2.192   0.405   0.860 -0.8560  0.1610 -2.1644
  101HFI     H2 1701   1.997   0.259   1.019 -1.5008  0.3423  1.5670
  102HFI     O1 1702   0.660   2.600   0.362  0.3913  0.3925  0.1883
  102HFI     C1 1703   0.766   2.658   0.446 -0.4815 -0.1495 -0.6707
  102HFI     C2 1704   0.772   2.805   0.410  0.3005  0.1511  0.0534
  102HFI     F1 1705   0.775   2.827   0.279  0.2817 -0.0816  0.2272
  102HFI     F2 1706   0.881   2.867   0.460 -0.2632  0.1038 -0.5193
  102HFI     F3 1707   0.663   2.862   0.464 -0.0781 -0.5766  0.2758
  102HFI     C3 1708   0.896   2.578   0.422  0.6278  0.4119  0.2441
  102HFI     F4 1709   0.956   2.632   0.318 -0.4508 -0.2400  0.2628
  102HFI     F5 1710   0.871   2.446   0.397 -0.3127 -0.1640  0.1996
  102HFI     F6 1711   0.977   2.577   0.533 -0.1943  0.4417  0.4834
  102HFI     H1 1712   0.637   2.513   0.399 -2.7164  1.1784  0.2170
  102HFI     H2 1713   0.744   2.646   0.553  0.0579 -0.3211 -0.5755
  103HFI     O1 1714   2.523   1.619   1.570  0.2775  0.0598  0.8420
  103HFI     C1 1715   2.641   1.699   1.551 -0.3391 -0.0183 -0.6999
  103HFI     C2 1716   2.618   1.800   1.431 -0.4537  0.4316  0.0144
  103HFI     F1 1717   2.537   1.901   1.472 -0.3390 -0.1381 -0.1574
  103HFI     F2 1718   2.553   1.731   1.328  0.0343 -0.4139  0.2030
  103HFI     F3 1719   2.735   1.851   1.380  0.2525  0.6100 -0.1754
  103HFI     C3 1720   2.767   1.614   1.534  0.0854 -0.0489  0.2877
  103HFI     F4 1721   2.805   1.599   1.402 -0.6377 -0.3336 -0.1939
  103HFI     F5 1722   2.757   1.495   1.601 -0.0040  0.4618 -0.5415
  103HFI     F6 1723   2.870   1.679   1.599 -0.1724  0.1261 -0.0282
  103HFI     H1 1724   2.543   1.523   1.569 -0.4391 -0.1081 -2.4404
  103HFI     H2 1725   2.651   1.761   1.642 -1.9665 -0.7652  0.0151
  104HFI     O1 1726   0.405   0.093   0.057  0.2307 -0.2701  0.5709
  104HFI     C1 1727   0.522   0.181   0.034 -0.3796  0.4179 -0.2542
  104HFI     C2 1728   0.476   0.323  -0.019  0.4209  0.1355 -0.4842
  104HFI     F1 1729   0.370   0.364   0.058 -0.1850 -0.7628  0.1670
  104HFI     F2 1730   0.432   0.314  -0.155 -0.3128 -0.2828 -0.3640
  104HFI     F3 1731   0.570   0.419  -0.012 -0.2310  0.2709  0.1115
  104HFI     C3 1732   0.646   0.116  -0.041  0.3612 -0.1208  0.2383
  104HFI     F4 1733   0.742   0.202  -0.059 -0.0595  0.0507 -0.4782
  104HFI     F5 1734   0.606   0.057  -0.154  0.0561  0.1432 -0.2288
  104HFI     F6 1735   0.686   0.015   0.037 -0.7029  0.3801 -0.1481
  104HFI     H1 1736   0.346   0.103  -0.020  2.4675  1.8005 -0.9172
  104HFI     H2 1737   0.570   0.209   0.129  1.2290 -1.1880 -0.5849
  105HFI     O1 1738   2.480   2.441   3.423 -0.5843 -0.7043  0.2764
  105HFI     C1 1739   2.355   2.489   3.450 -0.5416 -0.2526 -0.4319
  105HFI     C2 1740   2.341   2.640   3.422  0.5125  0.5485 -0.4732
  105HFI     F1 1741   2.347   2.659   3.291 -0.2643  0.4328 -0.6081
  105HFI     F2 1742   2.448   2.703   3.469 -0.2515  0.0763 -0.5476
  105HFI     F3 1743   2.230   2.703   3.469 -0.1363  0.0007 -0.0450
  105HFI     C3 1744   2.312   2.454   3.598 -0.3501 -0.8379  0.1654
  105HFI     F4 1745   2.180   2.478   3.619 -0.4143  0.5465 -0.5663
  105HFI     F5 1746   2.385   2.524   3.692 -0.2352 -0.4355 -0.5553
  105HFI     F6 1747   2.336   2.322   3.622  0.0826 -0.4357  0.0368
  105HFI     H1 1748   2.545   2.510   3.448  0.4381 -1.3918 -0.4295
  105HFI     H2 1749   2.282   2.427   3.397  0.2272  1.0936 -3.1638
  106HFI     O1 1750   1.783   3.379   0.478  0.0441 -0.1539  0.1936
  106HFI     C1 1751   1.685   3.491   0.474  0.0822 -0.8381 -0.4479
  106HFI     C2 1752   1.539   3.438   0.477  0.2873  0.3926 -0.2689
  106HFI     F1 1753   1.501   3.398   0.596 -0.0084  0.1165  0.0498
  106HFI     F2 1754   1.523   3.335   0.385 -0.5997  0.5342 -0.0511
  106HFI     F3 1755   1.453   3.536   0.445 -0.2103 -0.7897  0.0462
  106HFI     C3 1756   1.729   3.584   0.350 -0.4011  0.0671 -0.0588
  106HFI     F4 1757   1.859   3.617   0.358  0.4742 -0.2307 -0.1829
  106HFI     F5 1758   1.665   3.701   0.351 -0.7432  0.4558  0.1965
  106HFI     F6 1759   1.706   3.526   0.234 -0.0597  0.3799  0.3889
  106HFI     H1 1760   1.865   3.411   0.437 -0.8232  1.0920 -0.5623
  106HFI     H2 1761   1.706   3.551   0.563  2.1997 -0.1482 -1.3764
  107HFI     O1 1762   2.966   1.307   0.853 -0.5313  0.1781  0.2063
  107HFI     C1 1763   2.845   1.320   0.940  0.1315 -0.1689  0.2382
  107HFI     C2 1764   2.723   1.249   0.871  0.8034 -0.0317 -0.0503
  107HFI     F1 1765   2.606   1.276   0.939 -0.1133 -0.0345  0.0130
  107HFI     F2 1766   2.745   1.117   0.876  0.7460 -0.2709 -0.4837
  107HFI     F3 1767   2.715   1.284   0.743 -0.2691 -0.5877 -0.3451
  107HFI     C3 1768   2.816   1.467   0.977  0.0280 -0.5157 -0.2554
  107HFI     F4 1769   2.748   1.483   1.092  0.1137 -0.0608 -0.0477
  107HFI     F5 1770   2.754   1.526   0.874  0.1432  0.0121 -0.0312
  107HFI     F6 1771   2.931   1.534   0.993  0.2762  0.5858  0.1657
  107HFI     H1 1772   3.011   1.393   0.853  1.6804 -0.9459  1.3709
  107HFI     H2 1773   2.857   1.281   1.042  1.6510 -1.4454 -0.4072
  108HFI     O1 1774   2.689   0.273   1.321 -0.5337  0.1261  0.0924
  108HFI     C1 1775   2.739   0.168   1.406  0.1035  0.6040  0.1241
  108HFI     C2 1776   2.629   0.072   1.473 -0.2571 -0.0306 -1.1237
  108HFI     F1 1777   2.527   0.058   1.387 -0.1416 -0.0362  0.2430
  108HFI     F2 1778   2.576   0.115   1.587  0.5307 -0.1310 -0.2944
  108HFI     F3 1779   2.671  -0.058   1.495  0.8889 -0.4125  0.2968
  108HFI     C3 1780   2.839   0.229   1.510  0.5269  0.5105 -0.0860
  108HFI     F4 1781   2.941   0.301   1.444  0.3672  0.4520 -0.4079
  108HFI     F5 1782   2.909   0.136   1.585  0.1200  0.1407 -0.1514
  108HFI     F6 1783   2.773   0.313   1.589 -0.3813  0.2431  0.2279
  108HFI     H1 1784   2.680   0.352   1.378  0.2315 -1.1483  2.0116
  108HFI     H2 1785   2.794   0.096   1.344 -2.1564  0.2055 -1.4672
  109HFI     O1 1786   0.411   1.890   0.915  0.4941  0.2319 -0.6566
  109HFI     C1 1787   0.338   1.779   0.979  0.6936 -0.4951 -0.1632
  109HFI     C2 1788   0.213   1.822   1.051  0.4014 -0.1269 -0.6065
  109HFI     F1 1789   0.155   1.727   1.115 -0.1726  0.0461  0.2013
  109HFI     F2 1790   0.128   1.869   0.958  0.3788 -0.1852  0.0610
  109HFI     F3 1791   0.230   1.920   1.142 -0.4961 -0.4177  0.4536
  109HFI     C3 1792   0.436   1.700   1.070  0.0981  0.3164 -0.3345
  109HFI     F4 1793   0.559   1.713   1.029  0.2758 -0.3072  0.0997
  109HFI     F5 1794   0.420   1.569   1.073 -0.1121  0.0073 -0.1140
  109HFI     F6 1795   0.431   1.751   1.196 -0.1576  0.0562  0.2789
  109HFI     H1 1796   0.359   1.969   0.936 -2.2873 -1.8445  0.5144
  109HFI     H2 1797   0.297   1.718   0.897 -2.5987  0.2637  0.8376
  110HFI     O1 1798   2.433   0.498   0.137  0.9063  0.2667 -0.1376
  110HFI     C1 1799   2.442   0.637   0.098  0.0057 -1.0376 -0.6000
  110HFI     C2 1800   2.323   0.669   0.006 -0.0678 -0.7475 -0.4169
  110HFI     F1 1801   2.319   0.803  -0.035 -0.4498 -0.2078 -0.7473
  110HFI     F2 1802   2.209   0.646   0.072 -0.6901  0.2595  0.3028
  110HFI     F3 1803   2.322   0.599  -0.106  0.0757  1.0911  0.2477
  110HFI     C3 1804   2.572   0.680   0.026 -0.6903  0.2331 -0.3082
  110HFI     F4 1805   2.674   0.650   0.105 -0.1799 -0.4913 -0.2943
  110HFI     F5 1806   2.574   0.813   0.004 -0.1828 -0.1686 -0.2510
  110HFI     F6 1807   2.595   0.611  -0.089  0.1206  0.1874 -0.0119
  110HFI     H1 1808   2.420   0.448   0.055 -0.3758  0.4989 -0.0884
  110HFI     H2 1809   2.438   0.701   0.187  1.4237 -0.4451 -0.9497
  111HFI     O1 1810   2.166   1.512   1.369  0.0689 -0.2423  0.0552
  111HFI     C1 1811   2.060   1.557   1.459 -0.4740 -0.2587  0.4022
  111HFI     C2 1812   1.920   1.539   1.390 -0.3627  0.1895 -0.1964
  111HFI     F1 1813   1.913   1.422   1.330 -0.0400 -0.6149 -0.1822
  111HFI     F2 1814   1.887   1.635   1.311 -0.7719  0.1407 -0.1245
  111HFI     F3 1815   1.821   1.549   1.478  0.0858 -0.0913 -0.1529
  111HFI     C3 1816   2.087   1.701   1.504 -0.4853  0.1625  0.2089
  111HFI     F4 1817   2.201   1.710   1.577  0.3748  0.0582 -0.1128
  111HFI     F5 1818   1.992   1.742   1.593  0.1781  0.0878  0.0794
  111HFI     F6 1819   2.091   1.798   1.407 -0.1951 -0.0370  0.0036
  111HFI     H1 1820   2.178   1.578   1.299 -0.5314  0.1483  0.3162
  111HFI     H2 1821   2.065   1.493   1.548  1.0523  1.8752  1.9038
  112HFI     O1 1822   2.442   3.119   1.072 -0.2142 -0.1109  0.1891
  112HFI     C1 1823   2.499   3.209   0.975  1.6769  0.6344  0.3328
  112HFI     C2 1824   2.505   3.154   0.823  0.9702  0.0459 -0.5570
  112HFI     F1 1825   2.550   3.254   0.736  0.2107  0.0434 -0.4532
  112HFI     F2 1826   2.388   3.103   0.776  0.4900  0.0798  0.2194
  112HFI     F3 1827   2.588   3.048   0.815 -0.4455 -0.2905  0.2539
  112HFI     C3 1828   2.643   3.245   1.010 -0.5768  0.1034  0.0388
  112HFI     F4 1829   2.693   3.334   0.922  0.6229 -0.0533 -1.0246
  112HFI     F5 1830   2.736   3.145   1.014  0.3848  0.0360 -0.1537
  112HFI     F6 1831   2.647   3.303   1.130  0.5203 -0.6740 -0.4454
  112HFI     H1 1832   2.364   3.077   1.032  0.4795 -0.7631 -0.4962
  112HFI     H2 1833   2.440   3.302   0.979 -1.4038 -1.1830 -0.8538
  113HFI     O1 1834   1.449   1.211   1.235  0.6903  0.6836  0.4031
  113HFI     C1 1835   1.461   1.202   1.381  0.1211  0.0974  0.8556
  113HFI     C2 1836   1.415   1.332   1.443 -0.7156  0.0984  0.3330
  113HFI     F1 1837   1.478   1.442   1.384  0.4027  0.0867  0.0286
  113HFI     F2 1838   1.430   1.333   1.578 -0.2052  0.4568 -0.1004
  113HFI     F3 1839   1.285   1.343   1.420 -0.3316 -0.2681 -0.1742
  113HFI     C3 1840   1.604   1.149   1.428 -0.3444  0.0726  0.3166
  113HFI     F4 1841   1.661   1.061   1.350  0.3298  0.1319 -0.2517
  113HFI     F5 1842   1.589   1.096   1.551 -0.3886 -1.0629 -0.5934
  113HFI     F6 1843   1.694   1.252   1.437 -0.0954 -0.2788 -0.2674
  113HFI     H1 1844   1.517   1.160   1.187 -0.3487  0.8993 -1.3633
  113HFI     H2 1845   1.385   1.131   1.415  0.7359  0.0720  2.2068
  114HFI     O1 1846   1.490   0.667   0.290 -0.2244 -0.1841  0.7434
  114HFI     C1 1847   1.444   0.714   0.158  0.0057 -0.1469 -0.3974
  114HFI     C2 1848   1.326   0.632   0.118  0.4873 -0.1981 -0.2924
  114HFI     F1 1849   1.368   0.503   0.082  0.4160  0.2065  0.2722
  114HFI     F2 1850   1.260   0.682   0.010  1.0001  0.3054  0.0966
  114HFI     F3 1851   1.236   0.620   0.223 -0.3117  0.5802  0.6205
  114HFI     C3 1852   1.560   0.727   0.040  0.2941  0.6043 -0.1970
  114HFI     F4 1853   1.644   0.831   0.070  0.4863  0.1174 -0.6806
  114HFI     F5 1854   1.510   0.740  -0.085  0.0585  0.0521  0.4971
  114HFI     F6 1855   1.630   0.616   0.036  0.3456  0.3052  0.2381
  114HFI     H1 1856   1.582   0.692   0.309 -0.5577  0.0365  2.1624
  114HFI     H2 1857   1.409   0.817   0.171 -0.1221 -0.5296  2.5728
  115HFI     O1 1858   1.710   3.066   1.224 -0.0513  0.4381  0.0922
  115HFI     C1 1859   1.706   2.986   1.346 -0.0926 -0.8009  0.2439
  115HFI     C2 1860   1.590   2.884   1.348  0.1467  0.3154  0.0306
  115HFI     F1 1861   1.469   2.953   1.340 -0.7183  0.5897  0.6347
  115HFI     F2 1862   1.597   2.808   1.461 -0.4922 -0.0650 -1.2081
  115HFI     F3 1863   1.602   2.800   1.244  0.9950  0.3993 -0.2512
  115HFI     C3 1864   1.717   3.080   1.472  0.4406  0.0701  0.0138
  115HFI     F4 1865   1.710   3.015   1.586  0.2151 -0.7448 -0.0372
  115HFI     F5 1866   1.607   3.165   1.471 -0.2356 -0.1433 -0.2575
  115HFI     F6 1867   1.825   3.157   1.475 -0.3321 -1.2261 -0.1080
  115HFI     H1 1868   1.621   3.090   1.193 -0.9641 -1.1264  1.4535
  115HFI     H2 1869   1.805   2.939   1.348  1.2185  1.8127 -0.9750
  116HFI     O1 1870   0.280   1.562   0.183 -0.3236 -0.5967  0.4344
  116HFI     C1 1871   0.145   1.576   0.237  0.4506 -0.7157  1.1268
  116HFI     C2 1872   0.087   1.718   0.229  0.0424 -0.3237  0.8665
  116HFI     F1 1873   0.130   1.813   0.322 -0.0515 -0.3278 -0.3059
  116HFI     F2 1874  -0.046   1.709   0.242  0.5911 -0.1078  0.5122
  116HFI     F3 1875   0.110   1.780   0.113 -0.2470 -0.3234  0.0079
  116HFI     C3 1876   0.138   1.506   0.370 -0.4565  0.3090 -0.4915
  116HFI     F4 1877   0.031   1.544   0.445  0.2157 -0.3638 -0.7757
  116HFI     F5 1878   0.246   1.538   0.444 -0.3005  0.1260  0.3507
  116HFI     F6 1879   0.133   1.373   0.355  0.0267  0.5947 -0.3297
  116HFI     H1 1880   0.341   1.615   0.237  0.1141 -0.4160 -0.2454
  116HFI     H2 1881   0.067   1.522   0.182 -1.6806  1.8690  1.5016
  117HFI     O1 1882   1.009   0.157   1.589 -0.0700 -0.3223 -0.3602
  117HFI     C1 1883   1.021   0.259   1.486 -0.6117 -0.3774  0.3418
  117HFI     C2 1884   1.166   0.308   1.493 -0.8082  0.0354  0.6192
  117HFI     F1 1885   1.261   0.210   1.497 -0.2588  0.4636 -0.0041
  117HFI     F2 1886   1.181   0.390   1.594 -0.5380 -0.1718 -0.4196
  117HFI     F3 1887   1.192   0.379   1.381 -0.5120 -0.2550  0.4016
  117HFI     C3 1888   0.901   0.369   1.494 -0.1501 -0.3921  0.2697
  117HFI     F4 1889   0.923   0.469   1.585 -0.4078 -0.0301  0.0891
  117HFI     F5 1890   0.789   0.300   1.527 -0.4125  0.0797 -0.1693
  117HFI     F6 1891   0.883   0.424   1.375 -0.3308  0.1172  0.6592
  117HFI     H1 1892   0.918   0.163   1.623 -0.4822 -1.4016 -1.2349
  117HFI     H2 1893   1.009   0.206   1.391 -0.5271 -1.5098  0.9475
  118HFI     O1 1894   1.176   3.236   2.203  0.2476 -0.4430  0.4062
  118HFI     C1 1895   1.245   3.332   2.294 -0.9531  0.4369  0.2868
  118HFI     C2 1896   1.315   3.258   2.414  0.0419 -0.1190 -0.4963
  118HFI     F1 1897   1.222   3.198   2.500  0.0711  0.0188  0.2705
  118HFI     F2 1898   1.392   3.354   2.479  0.2495  0.0085 -0.1812
  118HFI     F3 1899   1.397   3.154   2.380 -0.4264  0.2537  0.2692
  118HFI     C3 1900   1.138   3.432   2.343  0.1050  0.2603  0.4685
  118HFI     F4 1901   1.084   3.493   2.242 -0.1595 -0.4666 -0.3743
  118HFI     F5 1902   1.190   3.528   2.418  0.3243 -0.1214 -0.4901
  118HFI     F6 1903   1.036   3.371   2.410  0.5284  0.2101 -0.1676
  118HFI     H1 1904   1.111   3.187   2.257  1.1712 -2.2356 -0.0953
  118HFI     H2 1905   1.320   3.386   2.235 -1.3898 -1.1015 -1.7373
  119HFI     O1 1906   1.101   0.246   0.472 -0.0459 -0.2644  0.7953
  119HFI     C1 1907   1.020   0.233   0.350 -0.1803 -0.6269  0.7130
  119HFI     C2 1908   1.093   0.199   0.226 -0.1470  0.0022  0.0465
  119HFI     F1 1909   1.006   0.127   0.153 -0.4229  0.6623  0.4305
  119HFI     F2 1910   1.198   0.121   0.264 -0.5822 -0.4825 -0.0471
  119HFI     F3 1911   1.144   0.304   0.154  0.1245  0.2832 -0.0906
  119HFI     C3 1912   0.922   0.349   0.338  0.3793  0.5449  0.1232
  119HFI     F4 1913   0.823   0.340   0.432  0.6483  0.4815  0.1842
  119HFI     F5 1914   0.865   0.358   0.217 -0.0320  0.3447 -0.5767
  119HFI     F6 1915   0.981   0.465   0.357  0.4159 -0.4049  0.1591
  119HFI     H1 1916   1.151   0.328   0.460 -0.1512 -0.4662 -1.1976
  119HFI     H2 1917   0.956   0.147   0.371  1.8067 -2.3217 -0.0725
  120HFI     O1 1918   0.487   1.801   2.238 -0.1634  0.2784  0.0715
  120HFI     C1 1919   0.367   1.783   2.327  0.4087 -0.2881  0.4688
  120HFI     C2 1920   0.274   1.667   2.273 -0.9067 -0.1919 -0.1156
  120HFI     F1 1921   0.181   1.705   2.189 -0.3963  0.1778  0.6778
  120HFI     F2 1922   0.213   1.617   2.385  0.7989  0.1222 -0.2851
  120HFI     F3 1923   0.348   1.568   2.219  0.3890 -0.1806  0.1754
  120HFI     C3 1924   0.289   1.918   2.346 -0.3122 -0.3149  0.0674
  120HFI     F4 1925   0.263   1.973   2.224 -0.5613  0.1436 -0.2179
  120HFI     F5 1926   0.365   2.006   2.425 -0.0398  0.3334  0.0918
  120HFI     F6 1927   0.173   1.901   2.409  0.0833 -0.1134  0.1809
  120HFI     H1 1928   0.519   1.893   2.243  0.4448  0.0692  0.0848
  120HFI     H2 1929   0.411   1.752   2.422  0.4367 -1.6302  0.0266
  121HFI     O1 1930   2.574   1.466   2.523  0.2048 -0.8022  0.6737
  121HFI     C1 1931   2.638   1.467   2.391 -0.2805 -0.9736 -0.6802
  121HFI     C2 1932   2.656   1.611   2.322 -0.1478 -0.1635  0.2655
  121HFI     F1 1933   2.687   1.702   2.423 -0.3782 -0.3731 -0.0833
  121HFI     F2 1934   2.543   1.662   2.256  0.1943  0.5912  0.1230
  121HFI     F3 1935   2.757   1.610   2.234  0.7264 -0.3673  0.0852
  121HFI     C3 1936   2.563   1.363   2.298  0.0638 -0.9738 -0.6039
  121HFI     F4 1937   2.445   1.414   2.271  0.6530  0.3065 -0.4516
  121HFI     F5 1938   2.535   1.255   2.362 -0.0547  0.0027 -0.3975
  121HFI     F6 1939   2.627   1.339   2.179  0.0824 -0.0857  0.2658
  121HFI     H1 1940   2.596   1.553   2.562  0.8365 -0.6147 -0.0988
  121HFI     H2 1941   2.741   1.432   2.406 -0.1925 -0.2720  0.4198
  122HFI     O1 1942   1.234   2.170   2.292  0.3729  0.3504 -0.4901
  122HFI     C1 1943   1.297   2.268   2.380 -0.2453 -0.4678  0.3166
  122HFI     C2 1944   1.210   2.395   2.399 -0.0153 -0.8558 -0.0628
  122HFI     F1 1945   1.267   2.485   2.483 -0.3356  0.4154  0.5710
  122HFI     F2 1946   1.092   2.353   2.460  0.0854 -0.2326 -0.0266
  122HFI     F3 1947   1.169   2.454   2.287 -0.2230  0.0191  0.3008
  122HFI     C3 1948   1.442   2.293   2.340 -1.0848  0.5516  0.5879
  122HFI     F4 1949   1.460   2.351   2.221 -0.0356 -0.5144 -0.2654
  122HFI     F5 1950   1.528   2.183   2.334 -0.0067 -0.2231 -0.4852
  122HFI     F6 1951   1.502   2.375   2.429 -0.5133 -0.3039 -0.2288
  122HFI     H1 1952   1.231   2.212   2.204  0.1379  0.7005 -0.3155
  122HFI     H2 1953   1.294   2.228   2.482 -0.4025 -2.2191 -0.3611
  123HFI     O1 1954   2.441   0.631   1.057 -0.6248 -0.0364  0.3208
  123HFI     C1 1955   2.474   0.708   0.936  0.4676  0.2868 -0.3989
  123HFI     C2 1956   2.476   0.628   0.802 -0.0120  0.1188 -0.1354
  123HFI     F1 1957   2.588   0.558   0.789 -0.0880  0.2190 -0.1644
  123HFI     F2 1958   2.478   0.712   0.696 -0.2647 -0.1089 -0.1457
  123HFI     F3 1959   2.372   0.547   0.787 -0.3965  0.4291  0.2723
  123HFI     C3 1960   2.597   0.800   0.948  0.3742 -0.6639 -0.5204
  123HFI     F4 1961   2.580   0.871   1.068 -0.6777  0.4184  0.3650
  123HFI     F5 1962   2.601   0.889   0.850  0.4718 -0.5552  0.3356
  123HFI     F6 1963   2.712   0.738   0.962  0.3067 -0.0422  0.5886
  123HFI     H1 1964   2.440   0.681   1.140  1.4749  1.2906 -0.4125
  123HFI     H2 1965   2.391   0.777   0.915 -1.8864 -1.8464  1.6215
  124HFI     O1 1966   1.355   1.796   3.725  0.4247  0.4958  0.6611
  124HFI     C1 1967   1.501   1.815   3.752 -0.2608 -0.1360 -0.1810
  124HFI     C2 1968   1.536   1.749   3.893 -0.0101  0.2057  0.4734
  124HFI     F1 1969   1.527   1.834   3.989 -0.7495 -0.0672  0.5201
  124HFI     F2 1970   1.662   1.697   3.890  0.1635  0.0213 -0.1029
  124HFI     F3 1971   1.451   1.654   3.923 -0.1720 -0.3069 -0.0384
  124HFI     C3 1972   1.566   1.956   3.738  0.1869  0.4308  0.1896
  124HFI     F4 1973   1.698   1.950   3.758 -0.7152 -0.1866  0.3655
  124HFI     F5 1974   1.511   2.045   3.823  0.8140  0.2233  0.6112
  124HFI     F6 1975   1.544   1.995   3.603 -0.0058  0.5680  0.1176
  124HFI     H1 1976   1.324   1.709   3.755 -4.2054  2.3306  1.5576
  124HFI     H2 1977   1.560   1.748   3.689 -0.0843 -1.2666  1.1411
  125HFI     O1 1978   2.146   0.097   2.800  0.0189  0.1980  0.5582
  125HFI     C1 1979   2.009   0.049   2.785  0.1140 -0.2042  0.3642
  125HFI     C2 1980   1.895   0.165   2.807 -0.4392  0.6942  0.7779
  125HFI     F1 1981   1.776   0.134   2.754  0.1515 -0.5872  0.3939
  125HFI     F2 1982   1.931   0.277   2.740 -0.1836 -0.1926  0.2086
  125HFI     F3 1983   1.881   0.205   2.932 -0.2357  0.1577 -0.1637
  125HFI     C3 1984   1.979  -0.063   2.877  0.1530 -0.5843 -0.0835
  125HFI     F4 1985   1.847  -0.086   2.890 -0.4725  0.5998  0.2032
  125HFI     F5 1986   2.037  -0.043   3.001  0.1388 -0.2577  0.6409
  125HFI     F6 1987   2.021  -0.180   2.829 -0.2318  0.2122  0.1195
  125HFI     H1 1988   2.202   0.019   2.819 -0.2519 -0.0894  0.1982
  125HFI     H2 1989   1.993   0.017   2.681 -0.2400  0.0013  0.3531
  126HFI     O1 1990   2.947   1.283   3.176  0.7865 -0.0892 -0.4162
  126HFI     C1 1991   3.089   1.313   3.155  0.2280 -1.1302  0.1608
  126HFI     C2 1992   3.181   1.205   3.203  0.2699 -0.6358 -1.0588
  126HFI     F1 1993   3.181   1.179   3.335 -0.0959 -0.3804 -0.0068
  126HFI     F2 1994   3.311   1.236   3.178 -0.0044  0.2387  0.1109
  126HFI     F3 1995   3.155   1.083   3.153 -0.1088  0.2456 -0.1156
  126HFI     C3 1996   3.115   1.452   3.215  0.3915 -0.0747  0.2317
  126HFI     F4 1997   3.240   1.505   3.197 -0.4185 -0.1736  0.0732
  126HFI     F5 1998   3.092   1.442   3.352  0.0239 -0.5382 -0.0456
  126HFI     F6 1999   3.020   1.546   3.175  0.2541 -0.3847 -0.1209
  126HFI     H1 2000   2.913   1.212   3.118 -3.0869  1.0304  0.3292
  126HFI     H2 2001   3.117   1.323   3.049 -0.4386 -3.9323 -0.3227
  127HFI     O1 2002   0.272   1.209   0.902 -0.1121  0.3404 -0.4509
  127HFI     C1 2003   0.131   1.228   0.897 -0.1576  0.2100 -0.0771
  127HFI     C2 2004   0.086   1.248   0.747 -0.1533  0.1777 -0.0680
  127HFI     F1 2005   0.116   1.144   0.666 -0.0333  0.3419  0.1504
  127HFI     F2 2006   0.131   1.361   0.687 -0.2789  0.4854 -0.3443
  127HFI     F3 2007  -0.047   1.261   0.744  0.3196  0.5719 -0.3167
  127HFI     C3 2008   0.077   1.339   1.001  0.0447  0.8215  0.1743
  127HFI     F4 2009  -0.057   1.312   1.010  0.0904  0.5319  0.0823
  127HFI     F5 2010   0.093   1.461   0.959 -0.7721  0.3892  0.4255
  127HFI     F6 2011   0.129   1.330   1.120 -0.2283  0.1195 -0.3947
  127HFI     H1 2012   0.318   1.268   0.840  2.3286 -1.2167 -0.1942
  127HFI     H2 2013   0.089   1.130   0.923 -0.3253  0.2870 -0.0539
  128HFI     O1 2014   1.833   2.887   2.312 -0.1128 -0.1658 -0.8328
  128HFI     C1 2015   1.753   2.768   2.274 -0.3094  0.1142  0.2208
  128HFI     C2 2016   1.603   2.789   2.293  0.9898 -0.3974  0.6648
  128HFI     F1 2017   1.553   2.886   2.213 -0.7932 -0.1513  0.1701
  128HFI     F2 2018   1.575   2.822   2.421 -0.3257  0.4719  0.3399
  128HFI     F3 2019   1.534   2.677   2.262  0.2742  0.5752 -0.8494
  128HFI     C3 2020   1.807   2.634   2.334  0.3056 -0.1190  0.0142
  128HFI     F4 2021   1.939   2.635   2.341 -0.7268 -0.6539 -0.5960
  128HFI     F5 2022   1.770   2.525   2.262  0.1025 -0.6013  0.0419
  128HFI     F6 2023   1.770   2.622   2.466  0.4092 -0.2094  0.6085
  128HFI     H1 2024   1.765   2.952   2.335 -1.4541 -1.3653 -1.3395
  128HFI     H2 2025   1.771   2.746   2.168 -0.0354  0.8437  0.1133
  129HFI     O1 2026   1.894   1.622   2.730 -0.2860 -0.1975  0.5457
  129HFI     C1 2027   1.779   1.554   2.679  0.1110  0.4827  0.1434
  129HFI     C2 2028   1.655   1.636   2.743 -0.5111  0.7039  0.0320
  129HFI     F1 2029   1.544   1.580   2.713  0.0304 -0.4485  0.1963
  129HFI     F2 2030   1.650   1.766   2.708  0.5073 -0.1409  0.2856
  129HFI     F3 2031   1.667   1.640   2.878 -0.5408  0.0672 -0.3603
  129HFI     C3 2032   1.780   1.398   2.713 -0.1125 -0.2325  0.1409
  129HFI     F4 2033   1.881   1.335   2.659  0.0102 -0.1484 -0.8760
  129HFI     F5 2034   1.666   1.336   2.664 -0.0828 -0.3246  0.0769
  129HFI     F6 2035   1.791   1.378   2.847 -0.0876  0.0517  0.0953
  129HFI     H1 2036   1.908   1.600   2.824  3.5371 -2.1290 -0.3753
  129HFI     H2 2037   1.765   1.563   2.571 -2.0526 -1.5904  0.1939
  130HFI     O1 2038   1.221   2.724   2.747  0.3705  0.3005  0.0054
  130HFI     C1 2039   1.342   2.717   2.831 -0.0661  0.3610 -0.4074
  130HFI     C2 2040   1.459   2.640   2.765  0.1231  0.1313 -0.3474
  130HFI     F1 2041   1.572   2.684   2.821  0.1118  0.3454  0.2570
  130HFI     F2 2042   1.470   2.671   2.630 -0.0728  0.0006 -0.4064
  130HFI     F3 2043   1.444   2.503   2.778  0.3407  0.4386 -0.1352
  130HFI     C3 2044   1.309   2.661   2.965 -0.2995  0.1527 -0.3142
  130HFI     F4 2045   1.211   2.739   3.019  0.0148 -0.2860 -0.6659
  130HFI     F5 2046   1.414   2.676   3.047  0.4339 -0.2956  0.4332
  130HFI     F6 2047   1.264   2.534   2.961  0.2905  0.2315  0.7037
  130HFI     H1 2048   1.247   2.708   2.655  0.3031 -2.4736  0.4121
  130HFI     H2 2049   1.373   2.819   2.858 -2.7054  1.0239  0.2919
  131HFI     O1 2050   0.461   2.682   0.633 -0.3517 -0.7953  0.2782
  131HFI     C1 2051   0.355   2.711   0.542 -1.1521  0.0971  0.5012
  131HFI     C2 2052   0.267   2.831   0.596  0.2295  0.0186 -0.6690
  131HFI     F1 2053   0.330   2.953   0.580 -0.0737  0.2936 -0.1319
  131HFI     F2 2054   0.241   2.811   0.725 -0.0388  0.5065 -0.0780
  131HFI     F3 2055   0.145   2.839   0.538 -0.6277  0.1951 -0.0841
  131HFI     C3 2056   0.274   2.581   0.520 -0.0039  0.1965  0.8240
  131HFI     F4 2057   0.360   2.479   0.495  0.1254 -0.2824  0.7685
  131HFI     F5 2058   0.174   2.585   0.427 -0.4858  0.2929 -0.1221
  131HFI     F6 2059   0.212   2.540   0.639 -0.1628  0.0773 -0.1904
  131HFI     H1 2060   0.432   2.674   0.725 -1.0351  1.0017  0.2526
  131HFI     H2 2061   0.386   2.740   0.441 -0.5576  1.6425  1.1250
  132HFI     O1 2062   2.085   2.956   3.275  0.6558 -0.2773  0.2748
  132HFI     C1 2063   1.963   2.986   3.344 -0.1039 -0.0755 -0.6404
  132HFI     C2 2064   1.951   3.132   3.390  0.6691  0.2846 -0.5707
  132HFI     F1 2065   2.032   3.165   3.493 -0.3097  0.0844 -0.0860
  132HFI     F2 2066   1.823   3.161   3.424 -0.1329 -0.4782 -0.1002
  132HFI     F3 2067   1.986   3.212   3.285 -0.3638  0.6383  0.2643
  132HFI     C3 2068   1.936   2.886   3.465  0.5289  0.2817  0.0814
  132HFI     F4 2069   1.810   2.905   3.527  0.1702 -0.0369  0.0653
  132HFI     F5 2070   2.029   2.893   3.561 -0.0642  0.2599  0.0171
  132HFI     F6 2071   1.940   2.755   3.422 -0.5845  0.1465  0.2501
  132HFI     H1 2072   2.135   2.905   3.341  0.5895 -1.9319 -0.9421
  132HFI     H2 2073   1.880   2.959   3.279 -0.1515  0.9079 -0.9900
  133HFI     O1 2074   2.111   0.184   2.511  0.1769 -0.0181  0.3294
  133HFI     C1 2075   2.193   0.169   2.394  0.9897 -0.5120 -0.2054
  133HFI     C2 2076   2.176   0.034   2.315 -0.4183  0.3380  0.3832
  133HFI     F1 2077   2.208  -0.066   2.393  0.7049 -0.0230 -0.1785
  133HFI     F2 2078   2.259   0.028   2.206  0.0439  0.0217 -0.5967
  133HFI     F3 2079   2.046   0.017   2.275 -0.0922 -0.0979 -0.1394
  133HFI     C3 2080   2.346   0.201   2.434 -0.6729  0.0833 -0.5041
  133HFI     F4 2081   2.351   0.307   2.516 -0.2714  0.0909  0.5401
  133HFI     F5 2082   2.424   0.223   2.323  0.1348  0.5823 -0.7173
  133HFI     F6 2083   2.395   0.099   2.505  0.0989 -0.0113 -0.2207
  133HFI     H1 2084   2.085   0.277   2.516 -0.4879 -0.1958  0.2370
  133HFI     H2 2085   2.166   0.251   2.327  0.4795  0.1073  0.7408
  134HFI     O1 2086   0.896   1.370   3.064 -0.0754  0.2253 -0.4006
  134HFI     C1 2087   0.802   1.459   3.133 -0.1648  0.7315  0.5405
  134HFI     C2 2088   0.854   1.487   3.272 -0.4017 -0.1086 -0.0847
  134HFI     F1 2089   0.989   1.467   3.281 -0.4037 -0.4209  0.2112
  134HFI     F2 2090   0.793   1.415   3.374 -0.1079 -0.0411  0.1574
  134HFI     F3 2091   0.814   1.613   3.307 -0.4823  0.6116 -0.0876
  134HFI     C3 2092   0.661   1.399   3.128  0.1447 -1.1327  0.7271
  134HFI     F4 2093   0.621   1.400   2.995  0.1746 -0.1740 -0.3114
  134HFI     F5 2094   0.573   1.470   3.204  0.4595  0.1636 -0.2282
  134HFI     F6 2095   0.662   1.269   3.165 -0.0399  0.3776  0.2723
  134HFI     H1 2096   0.893   1.279   3.098  1.5387 -0.0224 -0.9009
  134HFI     H2 2097   0.809   1.554   3.079  0.2272  0.5267  0.2222
  135HFI     O1 2098   2.195   1.575   2.237 -0.3685 -0.2589  0.7010
  135HFI     C1 2099   2.155   1.677   2.335 -0.0426  0.4071  0.9562
  135HFI     C2 2100   2.203   1.641   2.477 -0.7001  0.1013 -0.2194
  135HFI     F1 2101   2.331   1.690   2.487 -0.4887  0.3471 -0.0041
  135HFI     F2 2102   2.200   1.509   2.513  0.4188 -0.2563  0.0958
  135HFI     F3 2103   2.129   1.710   2.573 -0.7658 -0.2916  0.3315
  135HFI     C3 2104   2.007   1.713   2.330 -0.2287  0.1548  0.3317
  135HFI     F4 2105   1.972   1.832   2.384 -0.3877  0.2529 -0.4691
  135HFI     F5 2106   1.934   1.614   2.389  0.0408 -0.2956 -0.3781
  135HFI     F6 2107   1.970   1.729   2.206 -0.3767 -0.1477  0.1000
  135HFI     H1 2108   2.137   1.497   2.243 -0.5493 -0.2032 -0.1999
  135HFI     H2 2109   2.205   1.772   2.312  1.0572 -0.2467  0.6366
  136HFI     O1 2110   1.318   1.815   2.271  0.0444 -0.0084 -0.2959
  136HFI     C1 2111   1.430   1.726   2.255  0.2174 -0.1746 -0.2523
  136HFI     C2 2112   1.397   1.580   2.285 -0.3578  0.1580  0.3670
  136HFI     F1 2113   1.272   1.551   2.238  0.0402 -0.3513 -0.5134
  136HFI     F2 2114   1.390   1.554   2.417 -0.4527  0.2753  0.6451
  136HFI     F3 2115   1.479   1.487   2.228 -0.0788 -0.2007 -0.0488
  136HFI     C3 2116   1.560   1.774   2.334 -0.1468  0.4748  0.4628
  136HFI     F4 2117   1.664   1.682   2.318 -0.5062  0.0414 -0.2870
  136HFI     F5 2118   1.535   1.777   2.469 -0.0609 -0.3267  0.1270
  136HFI     F6 2119   1.606   1.895   2.287 -0.0282  0.7278  0.1549
  136HFI     H1 2120   1.246   1.789   2.210  2.4200 -2.5172 -2.1681
  136HFI     H2 2121   1.462   1.717   2.150  1.4543 -1.1287  0.2075
  137HFI     O1 2122   0.314   2.613   2.522  0.2584 -0.3685 -0.0805
  137HFI     C1 2123   0.274   2.569   2.390 -0.2869 -0.1113 -0.6849
  137HFI     C2 2124   0.353   2.444   2.334  0.4477 -0.2016 -0.1094
  137HFI     F1 2125   0.349   2.348   2.420 -0.0653  0.6140  0.0151
  137HFI     F2 2126   0.486   2.482   2.307 -0.1279  0.0666  0.0275
  137HFI     F3 2127   0.312   2.393   2.221 -0.2838  0.1164 -0.3458
  137HFI     C3 2128   0.259   2.687   2.292 -1.0495 -0.3017  0.4583
  137HFI     F4 2129   0.382   2.748   2.264  0.2322 -0.0698  0.5127
  137HFI     F5 2130   0.183   2.777   2.350 -0.3032  0.0474 -0.0163
  137HFI     F6 2131   0.189   2.659   2.176 -0.0037  0.1447 -0.4313
  137HFI     H1 2132   0.265   2.696   2.538  0.6745 -0.0122 -0.6529
  137HFI     H2 2133   0.169   2.535   2.383 -0.1911 -0.3137 -1.1491
  138HFI     O1 2134   1.198   0.695   2.477 -0.0526  0.1694  0.0598
  138HFI     C1 2135   1.258   0.573   2.436  0.1374  0.4657 -0.3061
  138HFI     C2 2136   1.408   0.563   2.483  0.0826  0.2880  0.7683
  138HFI     F1 2137   1.451   0.433   2.487 -0.4271  0.0192 -0.5148
  138HFI     F2 2138   1.422   0.600   2.611 -0.3158  0.2735  0.0058
  138HFI     F3 2139   1.483   0.644   2.398 -0.2983  0.1604 -0.0782
  138HFI     C3 2140   1.236   0.536   2.287 -0.2887 -0.6574 -0.5650
  138HFI     F4 2141   1.284   0.626   2.205  0.2847  0.0033  0.0112
  138HFI     F5 2142   1.105   0.520   2.256  0.3771 -0.4917  0.1131
  138HFI     F6 2143   1.300   0.416   2.259  0.0946 -0.2160 -0.5473
  138HFI     H1 2144   1.239   0.771   2.432  0.6209  0.2414  0.7775
  138HFI     H2 2145   1.200   0.497   2.489  0.6470  0.2225 -0.0909
  139HFI     O1 2146   0.114   0.548   2.910 -0.0523  0.0219  0.6727
  139HFI     C1 2147  -0.033   0.575   2.904  0.6959  0.4715 -0.3683
  139HFI     C2 2148  -0.082   0.647   2.772  0.1313 -0.2446 -0.8213
  139HFI     F1 2149  -0.220   0.659   2.776  0.1688  0.1585  0.0204
  139HFI     F2 2150  -0.053   0.578   2.663  0.0630  0.2496 -0.1618
  139HFI     F3 2151  -0.024   0.770   2.756 -0.0917 -0.7604 -0.0653
  139HFI     C3 2152  -0.079   0.649   3.036  1.1479  0.1441  0.1116
  139HFI     F4 2153  -0.046   0.580   3.138 -0.0868  0.0944  0.3830
  139HFI     F5 2154  -0.215   0.667   3.042 -0.1838 -0.7373 -0.0972
  139HFI     F6 2155  -0.022   0.773   3.046 -0.8110  0.3415 -0.8953
  139HFI     H1 2156   0.134   0.456   2.888  1.5351 -0.2868  3.2086
  139HFI     H2 2157  -0.085   0.479   2.896 -0.5594  0.9580  1.7196
  140HFI     O1 2158   1.167   0.500   0.574 -0.7348 -0.1073  0.3881
  140HFI     C1 2159   1.311   0.524   0.575  0.0935  0.4028 -0.6128
  140HFI     C2 2160   1.384   0.397   0.521 -0.5811 -0.0623  0.5295
  140HFI     F1 2161   1.518   0.410   0.516 -0.0748 -0.3971 -0.1392
  140HFI     F2 2162   1.336   0.366   0.390  0.1488  0.7253 -0.7201
  140HFI     F3 2163   1.349   0.289   0.600  0.0072  0.2773 -0.0990
  140HFI     C3 2164   1.362   0.570   0.715  0.1419 -0.3948  0.1517
  140HFI     F4 2165   1.362   0.471   0.806 -0.0587  0.1135 -0.3870
  140HFI     F5 2166   1.273   0.662   0.765 -0.4600  0.6988  0.3428
  140HFI     F6 2167   1.487   0.622   0.708 -0.4054 -0.0945 -0.2296
  140HFI     H1 2168   1.125   0.559   0.638  0.7728  1.3577  0.0578
  140HFI     H2 2169   1.331   0.604   0.504  0.6234 -0.3901 -1.3603
  141HFI     O1 2170   2.316   2.272   2.744 -0.7078 -0.4133 -0.1756
  141HFI     C1 2171   2.423   2.181   2.800 -0.2828 -0.1354 -0.0244
  141HFI     C2 2172   2.403   2.022   2.764 -0.3635 -0.2297  0.0530
  141HFI     F1 2173   2.439   2.011   2.635 -0.5913  0.3522 -0.6021
  141HFI     F2 2174   2.275   1.974   2.772  0.6014 -0.0542  0.2817
  141HFI     F3 2175   2.475   1.946   2.845 -0.2832  0.1184 -0.4041
  141HFI     C3 2176   2.432   2.206   2.950 -0.9088 -1.0907  0.3364
  141HFI     F4 2177   2.331   2.144   3.013  0.6043  0.2000 -0.1004
  141HFI     F5 2178   2.424   2.340   2.976 -0.0337 -0.0544 -0.8429
  141HFI     F6 2179   2.552   2.160   3.000  0.1120  0.0901  0.5144
  141HFI     H1 2180   2.307   2.354   2.795 -0.4522 -1.6194  1.8786
  141HFI     H2 2181   2.520   2.211   2.759 -1.0384 -0.1108 -1.8378
  142HFI     O1 2182   1.466   1.964   3.068  0.2791  0.1631  0.8460
  142HFI     C1 2183   1.561   2.028   2.970  0.2536  0.3089  0.1331
  142HFI     C2 2184   1.707   2.053   3.021  0.1730  0.4165 -1.1409
  142HFI     F1 2185   1.697   2.137   3.123  0.3072 -0.3010 -0.2520
  142HFI     F2 2186   1.785   2.111   2.930  0.1840 -0.0864 -0.0601
  142HFI     F3 2187   1.766   1.945   3.070  0.4183 -0.2586 -0.3140
  142HFI     C3 2188   1.501   2.162   2.899  0.8204 -0.2722  0.3844
  142HFI     F4 2189   1.569   2.192   2.790 -0.1920  0.3170  0.0098
  142HFI     F5 2190   1.496   2.268   2.976 -0.2590  0.5394 -0.0671
  142HFI     F6 2191   1.379   2.127   2.854 -0.3729  0.1016  0.2890
  142HFI     H1 2192   1.504   1.889   3.117 -2.1248 -2.0021 -0.4656
  142HFI     H2 2193   1.576   1.963   2.883  1.0064 -0.9813  1.2046
  143HFI     O1 2194   2.792   3.295   2.800  0.1687 -0.5590  0.0507
  143HFI     C1 2195   2.777   3.442   2.801  0.2198  0.3038  0.8077
  143HFI     C2 2196   2.915   3.513   2.809 -0.1391 -0.0961 -0.8511
  143HFI     F1 2197   3.005   3.469   2.902  0.1723  0.1762 -0.5573
  143HFI     F2 2198   2.893   3.645   2.821  0.0275 -0.4940  0.3124
  143HFI     F3 2199   2.982   3.503   2.697 -0.1647  0.4897  0.1436
  143HFI     C3 2200   2.677   3.495   2.909 -0.7651 -0.4601  0.3143
  143HFI     F4 2201   2.558   3.428   2.910 -0.2720  0.1218  0.1417
  143HFI     F5 2202   2.644   3.626   2.890 -0.3023 -0.7116  0.0814
  143HFI     F6 2203   2.725   3.471   3.035  0.2292  0.0844  0.4499
  143HFI     H1 2204   2.838   3.266   2.881  0.5415 -0.7315 -0.2205
  143HFI     H2 2205   2.738   3.474   2.703 -0.4282 -2.1562  0.2202
  144HFI     O1 2206   1.948   0.596   0.204 -0.1535  0.0935  0.0190
  144HFI     C1 2207   1.930   0.531   0.337 -0.2330  0.6318 -0.1755
  144HFI     C2 2208   1.853   0.622   0.435  0.2730  0.5381 -0.4720
  144HFI     F1 2209   1.934   0.717   0.491  0.0002 -0.0888  0.1164
  144HFI     F2 2210   1.793   0.544   0.538  0.0222  0.3914 -0.3629
  144HFI     F3 2211   1.746   0.685   0.375 -0.3584  0.2486  0.2968
  144HFI     C3 2212   2.060   0.467   0.397  0.3423 -0.8612  0.8686
  144HFI     F4 2213   2.030   0.374   0.492 -0.1994  0.0261  0.2363
  144HFI     F5 2214   2.145   0.557   0.451  0.4923  0.4695  0.3254
  144HFI     F6 2215   2.127   0.401   0.308  0.2395  0.3050 -0.1047
  144HFI     H1 2216   2.041   0.596   0.176 -0.1603  1.8708 -0.0762
  144HFI     H2 2217   1.864   0.446   0.317  0.7463  0.3524 -2.4597
  145HFI     O1 2218   1.709   1.774   0.694 -0.1856  0.2424  0.4338
  145HFI     C1 2219   1.628   1.870   0.612 -0.5451 -0.2417  0.1927
  145HFI     C2 2220   1.486   1.811   0.583  0.2014 -0.1924  0.6172
  145HFI     F1 2221   1.412   1.897   0.508  0.5364 -0.4561 -0.2879
  145HFI     F2 2222   1.425   1.804   0.700 -0.2670  0.5536  0.2393
  145HFI     F3 2223   1.486   1.693   0.516  0.2877  0.1547 -0.3678
  145HFI     C3 2224   1.706   1.906   0.478 -0.1777 -0.5069 -0.2014
  145HFI     F4 2225   1.641   2.003   0.401 -0.1477 -0.4231  0.2138
  145HFI     F5 2226   1.723   1.797   0.401 -0.2022 -0.2866 -0.0935
  145HFI     F6 2227   1.829   1.954   0.522  0.5290  0.2436  0.3706
  145HFI     H1 2228   1.644   1.755   0.764 -1.8331 -0.9128 -1.3637
  145HFI     H2 2229   1.621   1.972   0.653  0.5717 -0.1259  0.1212
  146HFI     O1 2230   3.076   2.500   2.420 -0.0855  0.0339 -0.0758
  146HFI     C1 2231   3.093   2.590   2.308 -0.2572  0.7327 -0.3446
  146HFI     C2 2232   3.219   2.686   2.324  0.3370  0.2810  0.0532
  146HFI     F1 2233   3.335   2.613   2.335  0.1452  0.2906 -0.0819
  146HFI     F2 2234   3.205   2.752   2.446 -0.3809 -0.4940  0.2838
  146HFI     F3 2235   3.225   2.767   2.212 -0.3145  0.0140  0.3706
  146HFI     C3 2236   2.956   2.652   2.278  0.0438  0.0550 -0.1450
  146HFI     F4 2237   2.894   2.688   2.389  0.2785 -0.7882  0.5165
  146HFI     F5 2238   2.870   2.572   2.219 -0.2597 -0.3510 -0.6250
  146HFI     F6 2239   2.963   2.760   2.208  0.6310  0.3831  0.2127
  146HFI     H1 2240   3.018   2.543   2.486  1.3625 -1.7325  2.4102
  146HFI     H2 2241   3.124   2.528   2.222  0.2733 -0.4577  0.6965
  147HFI     O1 2242   2.996   1.469   3.589 -0.2192 -0.0232  0.1766
  147HFI     C1 2243   2.948   1.590   3.653  0.2714 -0.4917  0.1960
  147HFI     C2 2244   2.948   1.713   3.554 -0.2984  0.1458 -0.3890
  147HFI     F1 2245   2.915   1.680   3.426  0.4626  0.2157 -0.7915
  147HFI     F2 2246   3.064   1.781   3.568 -0.2941  0.0919  0.3413
  147HFI     F3 2247   2.839   1.795   3.586  0.2776 -0.4534 -0.3691
  147HFI     C3 2248   3.007   1.612   3.797 -0.9761 -0.1665  0.1599
  147HFI     F4 2249   3.146   1.625   3.797  0.1014 -0.0916  0.2319
  147HFI     F5 2250   2.968   1.500   3.875  0.0223 -0.0797 -0.4383
  147HFI     F6 2251   2.956   1.719   3.846 -0.1328  0.0338 -0.3769
  147HFI     H1 2252   3.058   1.485   3.516 -0.0121 -2.4221 -0.2299
  147HFI     H2 2253   2.843   1.574   3.680  0.5338 -1.3161  0.7493
  148HFI     O1 2254   0.955   2.567   2.658 -0.4726  0.6881  0.2065
  148HFI     C1 2255   0.884   2.590   2.783  0.0276 -0.2011  0.1033
  148HFI     C2 2256   0.871   2.453   2.866 -0.5848 -0.5939 -0.7254
  148HFI     F1 2257   0.770   2.375   2.829  0.0198 -0.0610  0.2782
  148HFI     F2 2258   0.861   2.486   2.996 -0.2506  0.2666  0.7642
  148HFI     F3 2259   0.985   2.380   2.866 -0.0796 -0.3470 -0.5329
  148HFI     C3 2260   0.755   2.658   2.759  0.7550  0.5165  0.0531
  148HFI     F4 2261   0.767   2.772   2.681  0.1685 -0.0408  0.3951
  148HFI     F5 2262   0.705   2.694   2.881 -0.2223  0.6615 -0.1845
  148HFI     F6 2263   0.669   2.581   2.692 -0.1772  0.4693 -0.6624
  148HFI     H1 2264   0.905   2.509   2.598 -0.6687  1.6883 -0.6207
  148HFI     H2 2265   0.949   2.654   2.844  0.6173 -1.5824  0.9558
  149HFI     O1 2266   0.110   0.305   2.782 -0.1031  0.4146 -0.2617
  149HFI     C1 2267   0.091   0.177   2.833 -0.2060  1.0221  0.4628
  149HFI     C2 2268   0.167   0.061   2.751 -0.0892  0.9806 -0.3472
  149HFI     F1 2269   0.293   0.099   2.731  0.1094 -0.1973  0.1758
  149HFI     F2 2270   0.106   0.041   2.640  1.0459 -0.0410 -0.7061
  149HFI     F3 2271   0.178  -0.059   2.817  0.4907 -0.1407 -0.0145
  149HFI     C3 2272  -0.062   0.145   2.855 -0.0507 -0.2773 -0.2464
  149HFI     F4 2273  -0.128   0.177   2.741 -0.1294  0.3863  0.3679
  149HFI     F5 2274  -0.109   0.235   2.956  0.3239  0.3334  0.2343
  149HFI     F6 2275  -0.093   0.012   2.887  0.1471 -0.3095  0.6183
  149HFI     H1 2276   0.080   0.306   2.690  1.6667 -0.0265 -0.8629
  149HFI     H2 2277   0.145   0.174   2.928  0.3040  2.2995  0.2239
  150HFI     O1 2278   0.333   0.502   3.285 -0.4727  0.0837  0.2588
  150HFI     C1 2279   0.284   0.375   3.325  0.3224  0.3507 -0.0237
  150HFI     C2 2280   0.249   0.300   3.193 -1.2650  0.1071  0.0777
  150HFI     F1 2281   0.196   0.382   3.101  0.2095  0.2887 -0.4311
  150HFI     F2 2282   0.166   0.190   3.207 -0.1013  0.1684 -0.1956
  150HFI     F3 2283   0.360   0.248   3.138  0.6838 -0.3674 -0.6259
  150HFI     C3 2284   0.174   0.383   3.432  0.0652 -0.9016 -0.0419
  150HFI     F4 2285   0.171   0.266   3.504 -0.2658  0.0334 -0.3015
  150HFI     F5 2286   0.055   0.413   3.382  0.2203 -0.1635  0.3476
  150HFI     F6 2287   0.196   0.485   3.520  0.0938  0.0545 -0.2922
  150HFI     H1 2288   0.339   0.548   3.370 -2.4932  0.3495  0.2830
  150HFI     H2 2289   0.364   0.314   3.369  1.1893  1.2795 -0.2924
  151HFI     O1 2290   3.041   1.641   0.677  0.1796 -0.2816  0.0008
  151HFI     C1 2291   3.177   1.689   0.648  0.2106  0.8811  0.3821
  151HFI     C2 2292   3.247   1.751   0.772  0.2313 -0.4629  0.4919
  151HFI     F1 2293   3.377   1.777   0.745 -0.1946  0.5040 -0.7228
  151HFI     F2 2294   3.246   1.656   0.871  0.2832 -0.3295  0.2335
  151HFI     F3 2295   3.197   1.865   0.817  0.0137 -0.4252  0.0102
  151HFI     C3 2296   3.173   1.783   0.519 -0.6479  0.2389 -0.6027
  151HFI     F4 2297   3.306   1.794   0.492 -0.1120  0.5640  0.0725
  151HFI     F5 2298   3.117   1.902   0.545 -0.5819 -0.0613  0.0998
  151HFI     F6 2299   3.105   1.724   0.423 -0.6538 -0.4668 -1.0693
  151HFI     H1 2300   2.980   1.711   0.649 -1.3094 -0.6235  2.2244
  151HFI     H2 2301   3.239   1.606   0.612  1.5285  2.3389 -0.7502
  152HFI     O1 2302   1.174   1.933   0.286  0.0339 -0.2532 -0.1427
  152HFI     C1 2303   1.127   2.066   0.319  0.4639  0.4455 -0.0084
  152HFI     C2 2304   1.231   2.153   0.391  0.6026  0.1370 -0.1158
  152HFI     F1 2305   1.359   2.126   0.357  0.5728  0.3564  0.0001
  152HFI     F2 2306   1.215   2.149   0.524  0.3029  0.7738 -0.7367
  152HFI     F3 2307   1.210   2.280   0.349  0.1369  0.3811 -0.3425
  152HFI     C3 2308   0.989   2.066   0.396  0.0552  0.1254 -0.1841
  152HFI     F4 2309   0.937   2.185   0.443 -0.1862 -0.3765  0.0286
  152HFI     F5 2310   1.003   1.995   0.511  0.1443  0.0414  0.4809
  152HFI     F6 2311   0.890   2.007   0.322  0.4144 -0.0972  0.1591
  152HFI     H1 2312   1.271   1.932   0.299 -0.0745  0.3562  0.7449
  152HFI     H2 2313   1.104   2.107   0.220  1.6295  1.5036  0.1525
  153HFI     O1 2314   2.579   0.914   2.218 -0.1244 -0.2487 -0.5758
  153HFI     C1 2315   2.703   0.864   2.274  0.1166  0.6614 -0.4750
  153HFI     C2 2316   2.669   0.743   2.365 -1.2265 -0.6935  0.3182
  153HFI     F1 2317   2.607   0.773   2.483 -0.4654 -0.0429 -0.2371
  153HFI     F2 2318   2.782   0.677   2.406 -0.7212  0.4037  0.0077
  153HFI     F3 2319   2.600   0.653   2.303  0.2469  0.1787  0.5525
  153HFI     C3 2320   2.782   0.964   2.350  0.3938  0.5025  0.1697
  153HFI     F4 2321   2.817   1.068   2.282  0.0704 -0.1225 -0.3590
  153HFI     F5 2322   2.895   0.912   2.403  0.3708 -0.5243 -0.1888
  153HFI     F6 2323   2.708   1.009   2.456  0.1569  0.8164 -0.7593
  153HFI     H1 2324   2.525   0.945   2.293  0.7674  0.2051 -0.1197
  153HFI     H2 2325   2.774   0.836   2.195 -0.1564 -0.1973 -0.4277
  154HFI     O1 2326   2.954   2.781   3.470 -0.6310 -0.1201  0.7444
  154HFI     C1 2327   2.871   2.864   3.383  0.5103  0.3438  0.4190
  154HFI     C2 2328   2.795   2.973   3.463  0.0881  0.2576 -0.6310
  154HFI     F1 2329   2.726   3.060   3.384  0.1850  0.1491  0.6879
  154HFI     F2 2330   2.879   3.053   3.535 -0.0857  0.0806  0.3513
  154HFI     F3 2331   2.707   2.919   3.549 -0.0319 -0.0624 -0.0746
  154HFI     C3 2332   2.789   2.774   3.296  0.3987  0.9189 -0.0120
  154HFI     F4 2333   2.711   2.683   3.373 -0.6712 -0.3949  0.1655
  154HFI     F5 2334   2.866   2.707   3.207  0.3975 -0.1427  0.3860
  154HFI     F6 2335   2.702   2.846   3.224 -0.7266 -0.3333  0.1085
  154HFI     H1 2336   2.893   2.713   3.502 -0.7963 -0.2114  0.2300
  154HFI     H2 2337   2.932   2.923   3.314 -0.8983  2.7310  1.1741
  155HFI     O1 2338   3.225   0.898   2.448 -0.1135  0.5169 -0.1005
  155HFI     C1 2339   3.291   0.814   2.351  0.5634 -0.2440  0.2883
  155HFI     C2 2340   3.406   0.893   2.281 -0.8675  0.3830 -1.0192
  155HFI     F1 2341   3.361   1.008   2.228 -0.6463 -0.2463 -0.0062
  155HFI     F2 2342   3.458   0.818   2.181  0.0051 -0.1250  0.3465
  155HFI     F3 2343   3.507   0.918   2.366 -0.1633 -0.5189  0.3529
  155HFI     C3 2344   3.190   0.736   2.263 -0.0078  0.5633  0.5420
  155HFI     F4 2345   3.090   0.682   2.334 -0.1180 -0.3084  0.0459
  155HFI     F5 2346   3.254   0.642   2.189 -0.9302  0.3253  0.1712
  155HFI     F6 2347   3.136   0.830   2.181 -0.6369  0.1544  0.0108
  155HFI     H1 2348   3.259   0.988   2.432 -0.9011  0.3480 -3.0063
  155HFI     H2 2349   3.349   0.738   2.406 -2.0625 -1.9246  0.8651
  156HFI     O1 2350   0.777   2.382   2.525 -0.5049  0.0987  0.4553
  156HFI     C1 2351   0.784   2.259   2.436  0.0687 -0.2272 -0.0750
  156HFI     C2 2352   0.782   2.300   2.282 -0.3176  0.2959  0.0067
  156HFI     F1 2353   0.851   2.201   2.214 -0.1382  0.5065  0.2113
  156HFI     F2 2354   0.848   2.415   2.255  0.5824  0.0212  0.1601
  156HFI     F3 2355   0.661   2.311   2.217 -0.4018 -0.6531  0.4859
  156HFI     C3 2356   0.672   2.152   2.470 -0.0111 -0.2229 -0.7108
  156HFI     F4 2357   0.561   2.223   2.491 -0.2230  0.0301 -0.0095
  156HFI     F5 2358   0.702   2.084   2.587  0.0774  0.6986  0.0391
  156HFI     F6 2359   0.662   2.058   2.379 -0.1999  0.0540  0.4183
  156HFI     H1 2360   0.693   2.370   2.571 -1.1023 -0.5849 -0.7821
  156HFI     H2 2361   0.879   2.209   2.460  0.1191 -0.1535 -0.1190
  157HFI     O1 2362   2.016   1.733   0.918 -0.4009 -0.8065 -0.2274
  157HFI     C1 2363   1.973   1.876   0.902  0.3074  0.2257 -1.0137
  157HFI     C2 2364   2.079   1.965   0.833 -0.8066  0.3609 -0.4639
  157HFI     F1 2365   2.023   2.075   0.771 -0.4475  0.0876  0.4248
  157HFI     F2 2366   2.152   1.890   0.747  0.3062 -0.1580 -0.0825
  157HFI     F3 2367   2.171   2.001   0.923  0.3693 -0.1391  0.1851
  157HFI     C3 2368   1.906   1.934   1.037  0.6830  0.2860  0.7820
  157HFI     F4 2369   1.801   1.857   1.086  0.0838  0.1840 -0.2742
  157HFI     F5 2370   1.857   2.062   1.007 -0.1688 -0.5828  0.2719
  157HFI     F6 2371   1.994   1.947   1.136  0.2506 -0.0513  0.4709
  157HFI     H1 2372   2.064   1.707   0.837  0.5246  0.9842 -0.2953
  157HFI     H2 2373   1.894   1.866   0.827 -0.8573 -1.6651  0.4194
  158HFI     O1 2374   1.839   2.791   0.539 -0.2539  0.4815  0.0486
  158HFI     C1 2375   1.943   2.878   0.485  0.1505 -0.1757 -0.2130
  158HFI     C2 2376   1.894   2.980   0.388  0.0841  0.7266  0.7113
  158HFI     F1 2377   1.863   2.925   0.270  0.4014 -0.6150 -0.3947
  158HFI     F2 2378   1.989   3.069   0.356  0.1755  0.3714 -0.3358
  158HFI     F3 2379   1.779   3.036   0.435 -0.7992 -0.2957 -0.0774
  158HFI     C3 2380   2.067   2.797   0.435 -0.2906  0.8881 -0.2797
  158HFI     F4 2381   2.104   2.700   0.523  0.2379  0.5690 -0.0761
  158HFI     F5 2382   2.177   2.880   0.418  0.0563  0.0921  0.1928
  158HFI     F6 2383   2.047   2.731   0.323  0.4686 -0.4086  0.1323
  158HFI     H1 2384   1.871   2.711   0.584  0.5209 -0.2500 -1.7546
  158HFI     H2 2385   1.980   2.935   0.571  2.1488 -0.2368 -1.0210
  159HFI     O1 2386   0.614   2.222   3.747 -0.2995 -0.2361 -0.4604
  159HFI     C1 2387   0.561   2.139   3.859 -0.2007 -0.3951 -0.6778
  159HFI     C2 2388   0.411   2.091   3.841 -0.1713  0.2200 -0.7843
  159HFI     F1 2389   0.378   2.003   3.932 -0.4671 -0.2366  0.1985
  159HFI     F2 2390   0.397   2.039   3.721 -0.1403 -0.3929  0.1918
  159HFI     F3 2391   0.325   2.198   3.859  0.1308 -0.2449 -0.3861
  159HFI     C3 2392   0.579   2.208   4.008  0.1696 -0.1073  0.2725
  159HFI     F4 2393   0.704   2.255   4.031  0.0951  0.1177 -0.0393
  159HFI     F5 2394   0.552   2.126   4.107  0.2591 -0.1475 -0.0347
  159HFI     F6 2395   0.497   2.320   4.019 -0.2859  0.4542  0.5633
  159HFI     H1 2396   0.548   2.281   3.706 -1.9149 -0.9796  1.0325
  159HFI     H2 2397   0.629   2.055   3.874  0.4418  0.3241  0.5599
  160HFI     O1 2398   1.683   1.103   3.266  0.4557  0.1645 -0.4883
  160HFI     C1 2399   1.691   1.210   3.168  0.3318  0.6927 -0.2578
  160HFI     C2 2400   1.800   1.306   3.204 -0.5930  0.3006  0.1761
  160HFI     F1 2401   1.800   1.313   3.336  0.0525 -0.2260  0.0702
  160HFI     F2 2402   1.789   1.435   3.157  0.5985  0.2132  0.7739
  160HFI     F3 2403   1.929   1.265   3.170  0.6658 -0.1662 -0.0792
  160HFI     C3 2404   1.556   1.281   3.153  0.1232  0.3620  0.1081
  160HFI     F4 2405   1.521   1.346   3.271  0.4343  0.4214  0.1639
  160HFI     F5 2406   1.458   1.190   3.127  0.0234  0.5830  0.0484
  160HFI     F6 2407   1.568   1.370   3.059 -0.3132  0.2913 -0.4044
  160HFI     H1 2408   1.762   1.046   3.269  1.2895  1.2360 -1.7876
  160HFI     H2 2409   1.713   1.177   3.066 -0.0442 -1.6710  0.4067
  161HFI     O1 2410   0.986   3.374   3.122 -0.1136 -0.5200  0.5004
  161HFI     C1 2411   1.053   3.340   3.241 -0.1750  0.0080  0.9666
  161HFI     C2 2412   0.968   3.329   3.362  0.1875 -0.3682  1.2758
  161HFI     F1 2413   0.905   3.446   3.395  0.0248 -0.2252  0.0692
  161HFI     F2 2414   1.034   3.288   3.464 -0.7657 -0.1507 -0.1115
  161HFI     F3 2415   0.872   3.249   3.336 -0.0793  0.2710  0.9244
  161HFI     C3 2416   1.189   3.419   3.260 -0.4254  0.0351  0.6931
  161HFI     F4 2417   1.261   3.379   3.371  0.0690 -0.1105  0.1043
  161HFI     F5 2418   1.157   3.545   3.282 -0.3492 -0.0543 -1.0916
  161HFI     F6 2419   1.267   3.411   3.161  0.5412  0.2437 -0.1189
  161HFI     H1 2420   0.964   3.469   3.125  2.8745  0.1984  1.0137
  161HFI     H2 2421   1.095   3.239   3.234  1.2011  0.6255 -0.0084
  162HFI     O1 2422   1.978   1.031   2.454 -0.4304  0.2392 -0.4913
  162HFI     C1 2423   2.069   1.122   2.403 -0.1771 -0.5511 -0.0531
  162HFI     C2 2424   1.988   1.234   2.320 -0.2226  1.2617 -0.1753
  162HFI     F1 2425   1.927   1.196   2.207 -0.1160  0.5205  0.5124
  162HFI     F2 2426   2.067   1.332   2.284 -0.2710  0.6014 -0.6607
  162HFI     F3 2427   1.890   1.286   2.395 -0.0878 -0.7009  0.1498
  162HFI     C3 2428   2.182   1.065   2.316 -0.1786 -0.9268 -0.0923
  162HFI     F4 2429   2.140   0.969   2.232  0.3959 -0.0373  0.2225
  162HFI     F5 2430   2.272   1.009   2.397 -0.0815  0.7296  0.4965
  162HFI     F6 2431   2.250   1.157   2.244 -0.2429  0.4094 -0.4773
  162HFI     H1 2432   1.923   0.992   2.385 -1.0079 -1.4910  0.8994
  162HFI     H2 2433   2.114   1.185   2.480 -1.4111  0.7174 -0.3180
  163HFI     O1 2434   0.104   0.289   2.483  0.3674  0.0505 -0.2465
  163HFI     C1 2435   0.192   0.319   2.375 -1.2201  0.1956 -0.2896
  163HFI     C2 2436   0.143   0.454   2.308  0.0483  0.5036  0.1000
  163HFI     F1 2437   0.218   0.497   2.206 -0.1957  0.5904  0.4664
  163HFI     F2 2438   0.131   0.557   2.401 -0.1043  0.4832  0.3571
  163HFI     F3 2439   0.019   0.433   2.266 -0.0906  0.2767 -0.1726
  163HFI     C3 2440   0.210   0.200   2.274 -0.1388  0.0191  0.1455
  163HFI     F4 2441   0.230   0.087   2.333 -0.3924 -0.0013 -0.1395
  163HFI     F5 2442   0.317   0.220   2.196 -0.1326 -0.2477 -0.4424
  163HFI     F6 2443   0.099   0.179   2.202 -0.3191  0.3815 -0.2556
  163HFI     H1 2444   0.020   0.265   2.441  0.6234  1.0213 -1.3608
  163HFI     H2 2445   0.287   0.345   2.423 -0.1722  1.0140 -2.7609
  164HFI     O1 2446   3.150   1.698   2.427  0.9130  0.0187 -0.8094
  164HFI     C1 2447   3.226   1.576   2.416 -0.1978  0.5981  0.0332
  164HFI     C2 2448   3.255   1.550   2.270  0.4852  0.3411 -0.3149
  164HFI     F1 2449   3.145   1.528   2.199  0.2077 -0.3505 -0.2680
  164HFI     F2 2450   3.348   1.452   2.249  0.2717 -0.4545 -0.5544
  164HFI     F3 2451   3.314   1.659   2.223  0.5670 -0.1330 -0.0976
  164HFI     C3 2452   3.162   1.462   2.499 -0.0973  0.7239  0.5396
  164HFI     F4 2453   3.163   1.492   2.634  0.0042 -0.1975  0.0178
  164HFI     F5 2454   3.228   1.340   2.491 -0.1621  0.3283  0.4378
  164HFI     F6 2455   3.038   1.449   2.462  0.1125  0.2837  0.0810
  164HFI     H1 2456   3.218   1.768   2.431  0.8738  0.0353 -0.4527
  164HFI     H2 2457   3.328   1.598   2.451  0.1995 -0.0982 -0.6677
  165HFI     O1 2458   1.367   0.929   2.341  0.0929  0.3954 -0.0943
  165HFI     C1 2459   1.441   1.030   2.414  0.9712  0.5901 -0.4723
  165HFI     C2 2460   1.538   1.109   2.331 -0.5600  0.4048  0.1962
  165HFI     F1 2461   1.560   1.234   2.374 -0.3752  0.7937  0.2779
  165HFI     F2 2462   1.493   1.129   2.208 -0.0154  0.3926 -0.2208
  165HFI     F3 2463   1.652   1.042   2.319 -0.0684 -0.2976 -0.1201
  165HFI     C3 2464   1.498   0.972   2.545 -0.7060 -0.1508 -0.1027
  165HFI     F4 2465   1.402   0.922   2.614 -0.2062 -0.4762  0.7409
  165HFI     F5 2466   1.538   1.080   2.616  0.1490  0.4790 -0.3870
  165HFI     F6 2467   1.601   0.879   2.532  0.6966  0.1004 -0.2433
  165HFI     H1 2468   1.409   0.915   2.254  0.4130  3.3624 -0.4732
  165HFI     H2 2469   1.366   1.105   2.444  0.8021  0.2929 -0.1437
  166HFI     O1 2470   2.480   2.067   0.024 -0.6161 -0.0217 -0.1326
  166HFI     C1 2471   2.586   2.115   0.124  0.4166  0.2273  0.1431
  166HFI     C2 2472   2.643   2.253   0.081  0.5745 -0.0855  0.8771
  166HFI     F1 2473   2.548   2.345   0.067  0.5196  0.0702  0.0273
  166HFI     F2 2474   2.705   2.239  -0.042 -0.3132  0.5793 -0.1966
  166HFI     F3 2475   2.733   2.299   0.170  0.3229  0.2470  0.6017
  166HFI     C3 2476   2.689   2.003   0.119 -0.1372 -0.2775 -0.6750
  166HFI     F4 2477   2.724   1.964  -0.003  0.3347  0.0996 -0.1788
  166HFI     F5 2478   2.639   1.896   0.187 -0.1320 -0.0893  0.0646
  166HFI     F6 2479   2.798   2.028   0.190 -0.6327 -0.0667 -0.6061
  166HFI     H1 2480   2.497   2.088  -0.069 -0.2994 -2.1227 -0.5770
  166HFI     H2 2481   2.542   2.126   0.224  2.5940 -0.6449  1.2210
  167HFI     O1 2482   3.164   0.763   3.788  0.0206  0.0513  0.0211
  167HFI     C1 2483   3.184   0.632   3.726  0.3439  1.1738 -0.0969
  167HFI     C2 2484   3.255   0.527   3.820  0.1765 -0.3909  0.3425
  167HFI     F1 2485   3.227   0.395   3.789 -0.1647 -0.4308 -0.2109
  167HFI     F2 2486   3.210   0.551   3.946 -0.1639  0.1000 -0.4946
  167HFI     F3 2487   3.387   0.539   3.829 -0.5176  0.3208 -0.3263
  167HFI     C3 2488   3.256   0.642   3.591 -0.3081  0.0680 -0.4523
  167HFI     F4 2489   3.268   0.525   3.529  0.0139  0.0657  0.3093
  167HFI     F5 2490   3.385   0.690   3.605  0.6729 -0.0293  0.0402
  167HFI     F6 2491   3.198   0.730   3.508 -0.1885 -0.1394 -0.3736
  167HFI     H1 2492   3.232   0.779   3.855  0.6012 -0.8470 -0.3389
  167HFI     H2 2493   3.086   0.586   3.707  1.1416 -0.5783 -0.0525
  168HFI     O1 2494   2.073   0.460   2.507  0.3712  0.3350 -0.4713
  168HFI     C1 2495   1.970   0.535   2.434 -0.6450  0.4421  0.4234
  168HFI     C2 2496   2.045   0.618   2.322 -0.3691  0.2394 -0.1397
  168HFI     F1 2497   1.954   0.657   2.224  0.1580 -0.2349  0.0874
  168HFI     F2 2498   2.138   0.542   2.255  0.0277  0.4693  0.5113
  168HFI     F3 2499   2.111   0.727   2.368 -0.1449  0.4852  0.0826
  168HFI     C3 2500   1.866   0.612   2.522  0.5438 -0.7082  0.2575
  168HFI     F4 2501   1.744   0.607   2.468 -0.3579 -0.3299  0.4971
  168HFI     F5 2502   1.903   0.744   2.540 -0.0438 -0.0393 -0.1098
  168HFI     F6 2503   1.848   0.559   2.645 -0.1406 -0.2125 -0.1430
  168HFI     H1 2504   2.086   0.504   2.594 -2.2056 -1.5037  0.9007
  168HFI     H2 2505   1.906   0.468   2.376 -0.0656 -0.9574  1.3585
  169HFI     O1 2506   1.643   2.958   2.914  0.0987 -0.4162  0.2918
  169HFI     C1 2507   1.679   3.063   2.820  0.3760  0.4429 -0.2086
  169HFI     C2 2508   1.559   3.104   2.726  0.5648 -0.6078  0.4618
  169HFI     F1 2509   1.599   3.209   2.648  1.1164 -0.0541 -0.4348
  169HFI     F2 2510   1.452   3.150   2.796  0.1137 -0.0707  0.4584
  169HFI     F3 2511   1.514   3.002   2.647 -0.4147 -0.4458 -0.3714
  169HFI     C3 2512   1.804   3.020   2.739 -0.1457  0.3407  0.0132
  169HFI     F4 2513   1.782   2.914   2.658 -0.5438 -0.0257 -0.7675
  169HFI     F5 2514   1.892   2.985   2.834  0.0503  0.2564  0.6370
  169HFI     F6 2515   1.859   3.115   2.657  0.1982  0.2402  0.2392
  169HFI     H1 2516   1.699   2.879   2.910  0.0515 -0.6520  3.1436
  169HFI     H2 2517   1.710   3.148   2.881 -0.6802 -1.0386  2.4972
  170HFI     O1 2518   1.926   0.979   3.288 -0.2527 -0.1431 -0.2633
  170HFI     C1 2519   1.926   0.876   3.391  0.1003 -0.7812 -0.1607
  170HFI     C2 2520   2.075   0.846   3.427 -0.1896 -0.4885  0.6012
  170HFI     F1 2521   2.088   0.763   3.529 -0.2458 -0.6325 -0.0349
  170HFI     F2 2522   2.141   0.959   3.458  0.2971  0.0863  0.3424
  170HFI     F3 2523   2.142   0.791   3.322 -0.3627  0.2212  0.2643
  170HFI     C3 2524   1.842   0.754   3.350  0.3864  0.5695 -0.7583
  170HFI     F4 2525   1.721   0.804   3.335 -0.6203 -0.3083  0.7331
  170HFI     F5 2526   1.836   0.658   3.448 -0.3863  0.3801  0.2315
  170HFI     F6 2527   1.880   0.701   3.234  0.0817  0.7424  0.1500
  170HFI     H1 2528   1.991   0.951   3.221 -1.8637 -1.3513 -1.3485
  170HFI     H2 2529   1.877   0.915   3.481 -1.3202 -0.3887 -1.0749
  171HFI     O1 2530   2.531   3.217   2.227 -0.6169 -0.6367  0.9179
  171HFI     C1 2531   2.664   3.196   2.280 -0.9905  0.3622 -0.2420
  171HFI     C2 2532   2.661   3.073   2.377 -0.0075 -0.4311  0.5613
  171HFI     F1 2533   2.585   3.104   2.480 -0.1280 -0.1837  0.0176
  171HFI     F2 2534   2.784   3.050   2.421 -0.0274 -0.2488  0.4445
  171HFI     F3 2535   2.624   2.959   2.313  0.0913 -0.2358  0.3073
  171HFI     C3 2536   2.716   3.327   2.347 -0.2415  0.4386 -0.6340
  171HFI     F4 2537   2.622   3.380   2.432 -0.0344  0.1913 -0.2588
  171HFI     F5 2538   2.750   3.418   2.257  0.2551 -0.1495 -0.4564
  171HFI     F6 2539   2.833   3.305   2.419 -0.1935  0.0508  0.6302
  171HFI     H1 2540   2.468   3.250   2.292 -0.2073  1.0961  0.4629
  171HFI     H2 2541   2.734   3.174   2.198  0.4239 -1.0596  1.3074
  172HFI     O1 2542   1.151   0.757   2.799  0.3287  0.3959 -0.8088
  172HFI     C1 2543   1.012   0.726   2.789  0.9382 -0.1705 -0.5391
  172HFI     C2 2544   0.935   0.853   2.786  0.2850 -0.2059 -1.1261
  172HFI     F1 2545   0.979   0.926   2.683 -0.2722  0.4456  0.1461
  172HFI     F2 2546   0.949   0.936   2.900  0.0349  0.3663  0.4188
  172HFI     F3 2547   0.804   0.841   2.771 -0.6002  0.2988  0.0462
  172HFI     C3 2548   0.955   0.629   2.897  0.5127  0.2884 -0.2725
  172HFI     F4 2549   0.836   0.577   2.865  0.3307  0.5891  0.1693
  172HFI     F5 2550   0.952   0.684   3.023  0.2213  0.5642  0.3501
  172HFI     F6 2551   1.038   0.525   2.916  0.0696 -0.1278  0.2738
  172HFI     H1 2552   1.191   0.749   2.888  3.6424 -0.1735 -2.2823
  172HFI     H2 2553   0.994   0.674   2.694  2.3805  0.5252 -1.2138
  173HFI     O1 2554   2.300   3.258   2.995 -0.2009 -0.1651  0.5452
  173HFI     C1 2555   2.305   3.114   3.023  0.1624  0.4036 -0.2733
  173HFI     C2 2556   2.437   3.082   3.102  0.5836  0.1857  0.1277
  173HFI     F1 2557   2.443   2.952   3.128 -0.1582  0.1470 -0.4864
  173HFI     F2 2558   2.438   3.136   3.225 -0.4749 -0.5239  0.6748
  173HFI     F3 2559   2.549   3.116   3.035 -0.0671  0.5062 -0.0724
  173HFI     C3 2560   2.279   3.029   2.894  0.3381 -0.0471  0.6714
  173HFI     F4 2561   2.149   3.036   2.858  0.3002  0.6589 -0.3052
  173HFI     F5 2562   2.306   2.897   2.910 -0.0030 -0.0384 -0.2467
  173HFI     F6 2563   2.360   3.071   2.793 -0.1446 -0.1644 -0.2911
  173HFI     H1 2564   2.387   3.295   2.972  0.0601 -1.6438 -0.9136
  173HFI     H2 2565   2.219   3.090   3.086  0.8726  2.1044  1.4014
  174HFI     O1 2566   1.930   2.671   2.858  0.3541  0.0892  0.2668
  174HFI     C1 2567   1.986   2.576   2.959 -0.8244 -0.7368 -0.6848
  174HFI     C2 2568   2.118   2.630   3.034  0.0171  0.2161 -0.1256
  174HFI     F1 2569   2.102   2.756   3.060  0.5774  0.3585  1.0050
  174HFI     F2 2570   2.227   2.611   2.954  0.1081 -0.7038  0.4303
  174HFI     F3 2571   2.137   2.574   3.152  0.0438  0.4110  0.0485
  174HFI     C3 2572   2.015   2.433   2.901  0.6756  0.1263 -0.3391
  174HFI     F4 2573   1.908   2.363   2.878 -0.1392 -0.0148  0.7026
  174HFI     F5 2574   2.090   2.357   2.988  0.5030 -0.2993  0.3610
  174HFI     F6 2575   2.080   2.437   2.792  0.3384 -0.0241  0.2006
  174HFI     H1 2576   2.005   2.702   2.804  0.5516 -0.5465  0.1786
  174HFI     H2 2577   1.911   2.559   3.037  1.0291  0.7210  1.4929
  175HFI     O1 2578   3.279   1.751   2.749 -0.1516  0.1909 -0.5683
  175HFI     C1 2579   3.368   1.757   2.864  0.0043 -0.6537  0.2698
  175HFI     C2 2580   3.299   1.801   2.992  0.0609 -0.3276  0.1099
  175HFI     F1 2581   3.369   1.785   3.099  0.1794  0.2374  0.0421
  175HFI     F2 2582   3.184   1.730   3.005  0.0043  0.2502 -0.1793
  175HFI     F3 2583   3.258   1.933   2.984 -0.0392 -0.7606  0.0826
  175HFI     C3 2584   3.496   1.851   2.836  0.0144  0.0006  0.0848
  175HFI     F4 2585   3.591   1.826   2.930 -0.1850  0.2660 -0.0373
  175HFI     F5 2586   3.466   1.976   2.824 -0.0753  0.3209  0.1609
  175HFI     F6 2587   3.547   1.812   2.718 -0.3702 -0.5101 -0.1800
  175HFI     H1 2588   3.215   1.825   2.752 -0.5789 -0.1381 -1.2134
  175HFI     H2 2589   3.414   1.658   2.878  0.0591 -1.3952 -4.3927
  176HFI     O1 2590   1.122   1.048   2.479  0.2232 -0.2657 -0.1992
  176HFI     C1 2591   1.039   1.112   2.368 -0.3826 -1.3004 -0.5391
  176HFI     C2 2592   0.960   1.004   2.296  0.8374 -0.0434 -0.0202
  176HFI     F1 2593   0.871   0.949   2.380  0.1388  0.2195  0.2275
  176HFI     F2 2594   1.043   0.903   2.252 -0.2266 -0.1311  0.0433
  176HFI     F3 2595   0.884   1.056   2.194 -0.1756  0.5249 -0.3465
  176HFI     C3 2596   1.125   1.209   2.281  0.3877  0.1862  0.6070
  176HFI     F4 2597   1.204   1.291   2.357  0.3523  0.2396  0.2162
  176HFI     F5 2598   1.047   1.287   2.203  0.4835 -0.5668 -0.1602
  176HFI     F6 2599   1.216   1.146   2.196 -0.0407  0.0910 -0.4911
  176HFI     H1 2600   1.062   0.998   2.537  0.7248  1.2233  1.6723
  176HFI     H2 2601   0.975   1.185   2.421  1.3149  1.0381 -1.6269
  177HFI     O1 2602   2.344   2.132   1.362 -0.0279 -0.1255  0.0970
  177HFI     C1 2603   2.201   2.129   1.357  0.4766  1.1201 -0.0833
  177HFI     C2 2604   2.158   2.247   1.262  0.7930  0.0339 -0.1038
  177HFI     F1 2605   2.199   2.368   1.310 -0.1107 -0.3186 -0.0318
  177HFI     F2 2606   2.025   2.251   1.251 -0.0676  0.6363  0.0600
  177HFI     F3 2607   2.224   2.231   1.139 -0.5766  0.0972  0.4698
  177HFI     C3 2608   2.142   2.130   1.493 -0.5616  0.4447 -0.6362
  177HFI     F4 2609   2.009   2.096   1.495  0.3615 -0.4429  0.9348
  177HFI     F5 2610   2.152   2.250   1.549  0.0854 -0.4699 -0.2604
  177HFI     F6 2611   2.209   2.042   1.570 -0.2892  0.1624  0.1776
  177HFI     H1 2612   2.376   2.053   1.409 -0.0923 -0.0276  0.3057
  177HFI     H2 2613   2.164   2.042   1.302  1.3113  1.1683 -0.7235
  178HFI     O1 2614   0.899   1.141   3.324 -0.4582 -0.3525  0.2090
  178HFI     C1 2615   1.034   1.097   3.369 -0.3844 -0.2039  0.0395
  178HFI     C2 2616   1.103   0.987   3.283  0.8134  0.5043 -0.3048
  178HFI     F1 2617   1.085   1.029   3.159 -0.4110  0.2565 -0.4973
  178HFI     F2 2618   1.051   0.866   3.303 -0.2520 -0.2224 -0.5046
  178HFI     F3 2619   1.234   0.977   3.317 -0.7740  0.0728  0.2385
  178HFI     C3 2620   1.022   1.063   3.516 -0.2148 -0.1217  0.1236
  178HFI     F4 2621   0.924   0.974   3.524  0.4444  0.1206 -0.0623
  178HFI     F5 2622   0.985   1.167   3.594  0.2436 -0.5886  0.2879
  178HFI     F6 2623   1.132   1.008   3.576  0.6590  0.7656  0.0172
  178HFI     H1 2624   0.832   1.096   3.378  1.5106 -1.9990  1.3558
  178HFI     H2 2625   1.110   1.174   3.351 -0.7714 -0.5814 -3.5231
  179HFI     O1 2626   3.372   3.015   2.363 -0.1941 -0.0358 -0.4158
  179HFI     C1 2627   3.318   3.122   2.279  0.2683  0.5749 -0.4715
  179HFI     C2 2628   3.410   3.245   2.286  0.4939  1.1522 -0.3186
  179HFI     F1 2629   3.366   3.338   2.197 -0.2752  0.4660 -0.3964
  179HFI     F2 2630   3.530   3.216   2.246 -0.1348 -0.3012  0.0500
  179HFI     F3 2631   3.423   3.303   2.408 -0.0752  0.3987  0.0056
  179HFI     C3 2632   3.174   3.154   2.336 -0.1518 -0.4124 -0.7065
  179HFI     F4 2633   3.095   3.235   2.254  0.2366  0.0613 -0.1286
  179HFI     F5 2634   3.182   3.221   2.453 -0.3609 -0.4552  0.3571
  179HFI     F6 2635   3.103   3.045   2.372  0.1858 -0.3472 -0.0373
  179HFI     H1 2636   3.367   3.042   2.457  1.1592  0.9643 -0.6072
  179HFI     H2 2637   3.296   3.092   2.176 -2.3858 -1.0158  0.5198
  180HFI     O1 2638   1.236   0.063   3.760 -0.3949  0.0368  0.3823
  180HFI     C1 2639   1.369   0.020   3.803  0.1072 -0.0415 -0.0300
  180HFI     C2 2640   1.473   0.076   3.711 -0.9350 -0.1804  0.6563
  180HFI     F1 2641   1.591   0.017   3.725 -0.1383 -0.8378 -0.6576
  180HFI     F2 2642   1.493   0.208   3.736  0.4586 -0.2780 -0.3618
  180HFI     F3 2643   1.443   0.067   3.582  0.2429  0.4208 -0.0668
  180HFI     C3 2644   1.373  -0.141   3.811  0.2528 -0.4900  0.2877
  180HFI     F4 2645   1.486  -0.176   3.879  0.2545 -0.1001 -0.0252
  180HFI     F5 2646   1.376  -0.193   3.692 -0.1944 -0.0327 -0.1811
  180HFI     F6 2647   1.270  -0.192   3.880  0.4029 -0.5216  0.0581
  180HFI     H1 2648   1.248   0.157   3.736 -1.0434 -0.1725 -0.7902
  180HFI     H2 2649   1.383   0.050   3.908 -4.0933 -1.1062  0.9736
  181HFI     O1 2650   3.262   1.942   3.781  0.1914 -0.0970  0.1638
  181HFI     C1 2651   3.246   2.091   3.760  0.7501 -0.3617  0.0532
  181HFI     C2 2652   3.099   2.108   3.721  0.0742 -0.1993  0.6745
  181HFI     F1 2653   3.027   2.039   3.817  0.4722 -0.2080  0.1752
  181HFI     F2 2654   3.065   2.067   3.596 -0.0856 -0.0791  0.5345
  181HFI     F3 2655   3.058   2.240   3.720  0.5779  0.1764  0.2870
  181HFI     C3 2656   3.348   2.157   3.666  0.4331 -0.1304  0.2232
  181HFI     F4 2657   3.316   2.292   3.647  0.1300  0.3545 -0.2129
  181HFI     F5 2658   3.348   2.095   3.545 -0.2487 -0.1187  0.5887
  181HFI     F6 2659   3.470   2.143   3.718 -0.2393  0.2391 -0.6572
  181HFI     H1 2660   3.218   1.894   3.708  0.0669 -0.2742  0.3543
  181HFI     H2 2661   3.251   2.145   3.855  0.5381 -0.3456  0.0553
  182HFI     O1 2662   2.669   1.394   3.598 -0.0822 -0.0900  0.1791
  182HFI     C1 2663   2.548   1.396   3.683  0.1769  0.5008 -0.4771
  182HFI     C2 2664   2.585   1.397   3.835  0.2281 -1.0530  0.1585
  182HFI     F1 2665   2.654   1.512   3.855 -0.1404 -0.9212  0.0069
  182HFI     F2 2666   2.659   1.291   3.870 -0.3916 -0.2721 -0.4233
  182HFI     F3 2667   2.475   1.401   3.909 -0.2684  0.3464  0.7308
  182HFI     C3 2668   2.443   1.280   3.639  0.1249  0.2967  0.4193
  182HFI     F4 2669   2.496   1.158   3.674 -0.3705  0.2371  0.1117
  182HFI     F5 2670   2.428   1.279   3.504 -0.5982  0.4523  0.2373
  182HFI     F6 2671   2.327   1.293   3.698 -0.1315  0.0305  0.0970
  182HFI     H1 2672   2.686   1.302   3.570  0.9864  0.6960 -1.9094
  182HFI     H2 2673   2.497   1.491   3.662 -1.5476  0.4089  3.0215
  183HFI     O1 2674   2.034   2.379   0.256 -0.0799 -0.0574  0.3589
  183HFI     C1 2675   1.914   2.324   0.327  0.3225 -0.6435  0.1613
  183HFI     C2 2676   1.781   2.411   0.307  0.3983  0.2794  0.0761
  183HFI     F1 2677   1.763   2.438   0.178 -0.1163  0.2481  0.3520
  183HFI     F2 2678   1.784   2.533   0.375  0.7622  0.5843 -0.2405
  183HFI     F3 2679   1.670   2.339   0.346 -0.5077  0.4244  0.0454
  183HFI     C3 2680   1.950   2.300   0.476 -0.0552 -0.6620 -0.7205
  183HFI     F4 2681   1.986   2.410   0.547  0.0446 -0.0182  0.1733
  183HFI     F5 2682   2.050   2.211   0.473 -0.5732  0.1418 -0.1399
  183HFI     F6 2683   1.852   2.236   0.537 -0.2571  0.3397 -0.5197
  183HFI     H1 2684   2.004   2.440   0.187 -0.2748  1.5404  1.8333
  183HFI     H2 2685   1.888   2.222   0.298  0.5161 -0.7403  0.3338
  184HFI     O1 2686   1.835   3.401   2.482 -0.5226  0.0469 -0.1116
  184HFI     C1 2687   1.724   3.417   2.399  0.1389  0.0663 -0.6584
  184HFI     C2 2688   1.700   3.291   2.313  0.1252 -0.4790  0.2509
  184HFI     F1 2689   1.576   3.296   2.251 -0.7496 -0.0735 -0.2217
  184HFI     F2 2690   1.710   3.183   2.392  0.0563 -0.2367  0.3667
  184HFI     F3 2691   1.796   3.270   2.216  0.2041 -0.4528  0.1003
  184HFI     C3 2692   1.725   3.555   2.325 -0.3353  0.3936 -0.0380
  184HFI     F4 2693   1.758   3.653   2.410 -0.1398  0.0062 -0.1908
  184HFI     F5 2694   1.602   3.589   2.283  0.1407  0.0967 -0.1245
  184HFI     F6 2695   1.816   3.556   2.228 -0.1376  0.2978  0.0922
  184HFI     H1 2696   1.916   3.405   2.428 -2.0361 -0.2976 -2.4609
  184HFI     H2 2697   1.633   3.422   2.459  0.7772 -1.7228  0.4934
  185HFI     O1 2698   1.513   0.198   2.991  0.5421 -0.3109  0.4154
  185HFI     C1 2699   1.431   0.246   2.879  0.5286 -1.2090 -0.0861
  185HFI     C2 2700   1.294   0.313   2.922 -0.3194  0.3165 -0.1028
  185HFI     F1 2701   1.248   0.382   2.814 -0.6040 -0.6252 -0.3852
  185HFI     F2 2702   1.312   0.394   3.027 -0.2959 -0.1533 -0.0336
  185HFI     F3 2703   1.194   0.231   2.957  0.2806 -0.6664 -0.0903
  185HFI     C3 2704   1.395   0.142   2.769 -0.5155  0.8110 -0.3314
  185HFI     F4 2705   1.328   0.189   2.661 -0.3359 -0.3007 -0.1667
  185HFI     F5 2706   1.323   0.049   2.838  0.0252 -0.1443  0.4822
  185HFI     F6 2707   1.508   0.075   2.719 -0.1732 -0.5717 -0.1960
  185HFI     H1 2708   1.460   0.133   3.041  0.2563  0.6620  1.4184
  185HFI     H2 2709   1.486   0.321   2.820  0.2158 -0.7773  0.1717
  186HFI     O1 2710   3.300   2.015   2.459 -0.0773 -0.5752 -0.1325
  186HFI     C1 2711   3.229   2.110   2.376  0.2635  1.1527 -0.3427
  186HFI     C2 2712   3.125   2.027   2.284  0.2616  0.4054 -0.1652
  186HFI     F1 2713   3.051   1.956   2.367  0.0684 -0.0109 -0.0280
  186HFI     F2 2714   3.186   1.943   2.198  0.2800  0.0500 -0.1190
  186HFI     F3 2715   3.052   2.110   2.214  0.0412 -0.2189 -0.0860
  186HFI     C3 2716   3.321   2.214   2.302  0.0107  0.0884 -0.0815
  186HFI     F4 2717   3.397   2.292   2.387 -0.4606  0.3999  0.3239
  186HFI     F5 2718   3.256   2.300   2.217  0.4613 -0.3294 -0.2818
  186HFI     F6 2719   3.409   2.143   2.226 -0.0290  0.4008  0.5184
  186HFI     H1 2720   3.379   2.059   2.496 -0.5353 -1.2180  1.6452
  186HFI     H2 2721   3.168   2.168   2.446  0.3385  1.0161 -0.1627
  187HFI     O1 2722   2.868   1.096   2.961  0.6745 -0.2877 -0.0051
  187HFI     C1 2723   2.917   1.089   2.818  0.3753  0.2692 -0.1207
  187HFI     C2 2724   3.044   0.996   2.792  0.5012 -0.8868  0.5708
  187HFI     F1 2725   3.068   0.923   2.896 -0.8394 -0.1251 -0.2252
  187HFI     F2 2726   3.156   1.069   2.761  0.1876 -0.2189 -1.0300
  187HFI     F3 2727   3.028   0.911   2.684 -0.1538  0.0116 -0.0735
  187HFI     C3 2728   2.912   1.224   2.763  0.6479 -0.4436  0.0932
  187HFI     F4 2729   2.960   1.224   2.632  0.2696  0.0646  0.0947
  187HFI     F5 2730   2.989   1.311   2.834 -0.0531 -0.3123 -0.0327
  187HFI     F6 2731   2.792   1.268   2.757  0.0796  0.6244  0.2168
  187HFI     H1 2732   2.831   1.008   2.977 -0.6974 -0.2084 -2.6055
  187HFI     H2 2733   2.844   1.030   2.761  0.5643  0.0018 -0.0868
  188HFI     O1 2734   0.798   0.530   2.210  0.6842  0.0526 -0.0839
  188HFI     C1 2735   0.698   0.593   2.299  1.0580 -0.1918  0.0441
  188HFI     C2 2736   0.764   0.615   2.439  0.0941 -0.3883  0.1354
  188HFI     F1 2737   0.756   0.504   2.515  0.6101  0.2398 -0.1260
  188HFI     F2 2738   0.716   0.713   2.512  0.7463  0.2822 -0.2572
  188HFI     F3 2739   0.896   0.639   2.421 -0.8541 -0.2545  0.0626
  188HFI     C3 2740   0.564   0.516   2.306  0.8018 -0.1994 -0.4230
  188HFI     F4 2741   0.485   0.563   2.397  0.4670  0.0932 -0.3799
  188HFI     F5 2742   0.580   0.379   2.318 -0.1590 -1.0126  0.4762
  188HFI     F6 2743   0.499   0.527   2.188 -0.0562 -0.5368 -0.2417
  188HFI     H1 2744   0.891   0.533   2.239  0.7449  1.1101 -0.3504
  188HFI     H2 2745   0.679   0.692   2.256  1.3545  0.0089  0.3735
  189HFI     O1 2746   0.619   1.955   2.836  0.1545 -0.1245 -0.1445
  189HFI     C1 2747   0.515   1.855   2.846  0.5827  0.6971 -0.9027
  189HFI     C2 2748   0.515   1.784   2.994 -0.0683 -0.3756  0.0554
  189HFI     F1 2749   0.635   1.726   3.007 -0.3090 -0.4911 -0.8270
  189HFI     F2 2750   0.424   1.689   3.004  0.2890 -0.9614 -0.2475
  189HFI     F3 2751   0.486   1.874   3.090  0.1774 -0.2123 -0.1608
  189HFI     C3 2752   0.515   1.754   2.729  0.3177 -0.7547  0.4406
  189HFI     F4 2753   0.587   1.645   2.744  0.4297  0.0715 -0.5707
  189HFI     F5 2754   0.549   1.816   2.612  0.1457  0.0488 -0.0428
  189HFI     F6 2755   0.391   1.712   2.708  0.2738 -0.0959  0.2243
  189HFI     H1 2756   0.676   1.922   2.764 -0.5119 -2.4171  0.3465
  189HFI     H2 2757   0.417   1.903   2.842 -0.7983 -1.9001  0.4303
  190HFI     O1 2758   1.871   1.035   3.707 -0.0888  0.0479  0.3166
  190HFI     C1 2759   1.995   1.042   3.789  0.2122 -0.9438 -0.1765
  190HFI     C2 2760   1.999   0.929   3.890  0.0309  0.4696  0.3173
  190HFI     F1 2761   1.981   0.811   3.833 -0.3373 -0.2977  0.4221
  190HFI     F2 2762   1.894   0.954   3.973  0.3513  0.0463 -0.3606
  190HFI     F3 2763   2.114   0.927   3.963  0.3112 -0.4272  0.4169
  190HFI     C3 2764   2.003   1.181   3.848 -0.5457 -0.6777  0.3715
  190HFI     F4 2765   2.121   1.211   3.911  0.3393 -0.1458  0.1942
  190HFI     F5 2766   1.908   1.209   3.938  0.1750  0.2143 -0.0074
  190HFI     F6 2767   1.997   1.269   3.749 -0.1270  0.3660  0.1829
  190HFI     H1 2768   1.805   1.011   3.775 -0.7633  1.0330  0.0172
  190HFI     H2 2769   2.079   1.043   3.718  0.1678 -0.6131 -0.2262
  191HFI     O1 2770   1.389   1.938   3.367  0.5964 -0.0131  0.0652
  191HFI     C1 2771   1.291   1.829   3.370 -0.2904  0.1076  0.0557
  191HFI     C2 2772   1.356   1.698   3.321 -0.2010  0.2113 -0.0772
  191HFI     F1 2773   1.394   1.698   3.194  0.1214  0.4730  0.0105
  191HFI     F2 2774   1.271   1.592   3.334  0.5161 -0.2033 -0.2334
  191HFI     F3 2775   1.470   1.675   3.395  0.3401 -0.2249  0.2959
  191HFI     C3 2776   1.166   1.870   3.287 -0.2847  0.0148 -0.6451
  191HFI     F4 2777   1.114   1.988   3.332 -0.5489  0.3405  0.2351
  191HFI     F5 2778   1.069   1.777   3.296  0.5321 -0.0013  0.3351
  191HFI     F6 2779   1.189   1.890   3.152  0.3647  0.0433  0.0056
  191HFI     H1 2780   1.364   2.022   3.409 -1.4781  0.0009 -1.1886
  191HFI     H2 2781   1.260   1.816   3.474  1.4143 -2.3258  0.2966
  192HFI     O1 2782   3.396   2.515   3.345 -0.0952  0.1621 -0.3621
  192HFI     C1 2783   3.450   2.649   3.344 -0.0129 -0.2027 -0.0247
  192HFI     C2 2784   3.606   2.649   3.339  0.1529  0.2022  0.5402
  192HFI     F1 2785   3.653   2.559   3.426 -0.7013  0.4687 -0.6791
  192HFI     F2 2786   3.662   2.764   3.375  0.3900  0.2882  0.3112
  192HFI     F3 2787   3.653   2.614   3.216 -0.0377  0.4510 -0.3769
  192HFI     C3 2788   3.395   2.735   3.459 -0.7900  0.0307  0.3491
  192HFI     F4 2789   3.265   2.717   3.456  0.2178  0.0104 -0.2647
  192HFI     F5 2790   3.422   2.869   3.434 -0.0294  0.2756  0.1958
  192HFI     F6 2791   3.433   2.707   3.582 -0.4641 -0.0452 -0.2524
  192HFI     H1 2792   3.369   2.491   3.435  2.3724  0.3489  0.4725
  192HFI     H2 2793   3.427   2.693   3.246  0.6523 -0.6160 -0.3682
  193HFI     O1 2794   2.586   1.394   2.988 -0.0299 -0.5839  0.1923
  193HFI     C1 2795   2.666   1.460   3.096  0.1217 -0.4015  0.0393
  193HFI     C2 2796   2.610   1.426   3.237  0.3066 -0.0282  0.3605
  193HFI     F1 2797   2.488   1.473   3.249  0.0130 -0.3041  0.0303
  193HFI     F2 2798   2.694   1.472   3.337 -0.5074  0.3397 -0.0560
  193HFI     F3 2799   2.598   1.294   3.243  0.8451  0.6405 -0.4770
  193HFI     C3 2800   2.678   1.613   3.072 -0.4689  0.3862  0.2009
  193HFI     F4 2801   2.557   1.666   3.060 -0.3294 -0.0553  0.6921
  193HFI     F5 2802   2.739   1.626   2.954  0.3421 -0.4729  0.1309
  193HFI     F6 2803   2.752   1.678   3.164  0.1695  0.0603 -0.6691
  193HFI     H1 2804   2.494   1.422   3.002  0.0023 -0.4209  0.0708
  193HFI     H2 2805   2.772   1.435   3.085  0.5081  1.4664 -0.7433
  194HFI     O1 2806   2.558   2.270   2.201 -0.3641 -0.0149  0.0420
  194HFI     C1 2807   2.576   2.347   2.321 -0.1659  0.1071  0.1756
  194HFI     C2 2808   2.673   2.271   2.408  0.4109 -0.2802 -0.5197
  194HFI     F1 2809   2.618   2.152   2.443 -0.0774 -0.2851  0.0494
  194HFI     F2 2810   2.706   2.341   2.515 -0.3170 -0.3952  0.3132
  194HFI     F3 2811   2.786   2.251   2.342  0.3908  0.6181 -0.1421
  194HFI     C3 2812   2.442   2.377   2.389 -0.4194  0.5511  0.6004
  194HFI     F4 2813   2.379   2.264   2.403 -0.0747  0.3030  0.0941
  194HFI     F5 2814   2.368   2.463   2.312 -0.2147 -0.1242 -0.1837
  194HFI     F6 2815   2.459   2.424   2.515 -0.5273  0.5758  0.8227
  194HFI     H1 2816   2.498   2.195   2.215  0.0529 -0.3601 -0.0081
  194HFI     H2 2817   2.623   2.443   2.296 -0.7568  0.5257  0.6675
  195HFI     O1 2818   1.046   1.058   0.550 -0.7708  0.3894 -0.1180
  195HFI     C1 2819   0.986   0.952   0.481 -0.4347  0.0493 -0.1422
  195HFI     C2 2820   0.933   0.842   0.583 -0.2568  0.0915  0.6275
  195HFI     F1 2821   0.855   0.895   0.679 -0.0036  0.1054  0.7295
  195HFI     F2 2822   1.037   0.777   0.640  0.0459  0.6651  0.3437
  195HFI     F3 2823   0.857   0.751   0.511  0.0838 -0.1504  0.0389
  195HFI     C3 2824   1.077   0.901   0.363  0.5507  0.7823 -0.0428
  195HFI     F4 2825   1.093   0.992   0.262 -0.0789 -0.4977  0.1385
  195HFI     F5 2826   1.020   0.800   0.299 -0.0490 -0.0034 -0.6492
  195HFI     F6 2827   1.195   0.858   0.407  0.3734  0.2389 -0.0768
  195HFI     H1 2828   1.122   1.099   0.506 -0.0015  0.5938  1.3748
  195HFI     H2 2829   0.902   0.998   0.428 -0.1674 -1.1941 -1.6656
  196HFI     O1 2830   1.635   0.296   3.393  0.2002 -0.3995 -0.3155
  196HFI     C1 2831   1.711   0.228   3.284 -0.1537 -0.0273  0.1912
  196HFI     C2 2832   1.683   0.071   3.287  0.3469 -0.5458 -0.5525
  196HFI     F1 2833   1.550   0.052   3.277 -0.3891  0.4332  0.2537
  196HFI     F2 2834   1.717   0.004   3.403 -0.1297  0.1800 -0.3264
  196HFI     F3 2835   1.747   0.015   3.185  0.1608  0.0387 -0.4635
  196HFI     C3 2836   1.861   0.262   3.290  0.3194 -0.7281 -1.6935
  196HFI     F4 2837   1.939   0.207   3.191 -0.1274 -0.2304 -0.4345
  196HFI     F5 2838   1.919   0.216   3.405 -0.0497 -0.0982  0.0915
  196HFI     F6 2839   1.885   0.394   3.282 -0.2776 -0.0946  0.0721
  196HFI     H1 2840   1.666   0.262   3.478  0.5673 -0.0912 -0.3229
  196HFI     H2 2841   1.678   0.264   3.186  1.9557  0.3376 -0.4169
  197HFI     O1 2842   1.353   0.544   3.373  0.1503  0.2368 -0.5020
  197HFI     C1 2843   1.241   0.518   3.461  0.4804  0.4173  0.4196
  197HFI     C2 2844   1.275   0.404   3.559  0.1834  0.0810  0.0795
  197HFI     F1 2845   1.287   0.280   3.501  0.2423  0.2053 -0.2746
  197HFI     F2 2846   1.185   0.396   3.659  0.4305  0.0340  0.0541
  197HFI     F3 2847   1.399   0.432   3.614  0.5754 -0.3425 -0.1009
  197HFI     C3 2848   1.116   0.480   3.367  0.2731 -0.2734  0.2062
  197HFI     F4 2849   1.023   0.406   3.435 -0.4141  0.1186  0.4730
  197HFI     F5 2850   1.145   0.413   3.258  0.0828 -0.1677  0.6845
  197HFI     F6 2851   1.051   0.587   3.324  0.2537  0.7835  0.3205
  197HFI     H1 2852   1.416   0.606   3.414  0.8402 -0.5244 -0.3850
  197HFI     H2 2853   1.202   0.607   3.512  0.2123  0.4551  0.1531
  198HFI     O1 2854   1.934   1.615   3.305 -0.2626 -0.5193 -0.0805
  198HFI     C1 2855   2.010   1.621   3.430  0.2963 -0.4293  0.2413
  198HFI     C2 2856   2.112   1.512   3.454 -0.4533 -0.7166  0.4187
  198HFI     F1 2857   2.190   1.495   3.348  0.4501 -0.4667  0.1028
  198HFI     F2 2858   2.053   1.392   3.481 -0.5819 -0.5593  0.1597
  198HFI     F3 2859   2.194   1.550   3.555 -0.1510  0.0352  0.4407
  198HFI     C3 2860   1.898   1.624   3.547 -0.4979 -0.2707  0.2414
  198HFI     F4 2861   1.958   1.636   3.674  0.4562 -0.4843  0.0382
  198HFI     F5 2862   1.821   1.515   3.553 -0.7973  0.3773  0.1875
  198HFI     F6 2863   1.814   1.729   3.540  0.5662  0.2550 -0.1285
  198HFI     H1 2864   1.852   1.564   3.315 -0.7789  0.4336  0.5669
  198HFI     H2 2865   2.064   1.716   3.436  0.1414 -0.2553 -1.0973
  199HFI     O1 2866   0.157   1.067   3.578 -0.1034 -0.2906  0.3838
  199HFI     C1 2867   0.047   1.150   3.571  0.1935 -0.2250  0.1166
  199HFI     C2 2868   0.085   1.283   3.495 -0.1902 -0.2511 -0.4859
  199HFI     F1 2869   0.176   1.351   3.575  0.2994  0.1531 -0.5656
  199HFI     F2 2870  -0.030   1.354   3.481 -0.1230  0.1819  0.0015
  199HFI     F3 2871   0.151   1.253   3.375 -0.0798 -0.0065 -0.1411
  199HFI     C3 2872  -0.022   1.161   3.711 -0.2178 -0.7246  0.2787
  199HFI     F4 2873  -0.115   1.255   3.727  0.2606 -0.3432  0.0880
  199HFI     F5 2874   0.067   1.176   3.811 -0.1595  0.6064 -0.1758
  199HFI     F6 2875  -0.079   1.038   3.733 -0.4089 -0.5037 -0.5164
  199HFI     H1 2876   0.224   1.112   3.632 -0.0365  1.2792 -0.9855
  199HFI     H2 2877  -0.027   1.105   3.504  0.4314 -2.0799  1.0870
  200HFI     O1 2878   2.922   0.172   3.419  0.3476 -0.6477 -0.1583
  200HFI     C1 2879   2.983   0.300   3.387 -0.6881  0.0120 -0.1027
  200HFI     C2 2880   2.908   0.425   3.451  0.6338 -0.1994 -0.4845
  200HFI     F1 2881   2.799   0.446   3.384 -0.3649 -0.3370  0.1611
  200HFI     F2 2882   2.976   0.537   3.436 -0.3570 -0.1899  0.6875
  200HFI     F3 2883   2.889   0.402   3.586 -0.2011 -0.0303  0.2449
  200HFI     C3 2884   3.038   0.317   3.241  0.3705 -0.1818 -0.3691
  200HFI     F4 2885   2.941   0.319   3.147 -0.1878 -0.0784  0.5417
  200HFI     F5 2886   3.113   0.210   3.213 -0.0769  0.3911 -0.1219
  200HFI     F6 2887   3.119   0.427   3.215 -0.2591 -0.2486  0.5399
  200HFI     H1 2888   2.846   0.164   3.359  0.7531 -0.2633 -0.7251
  200HFI     H2 2889   3.080   0.303   3.438  0.2237 -3.1114 -1.5084
  201HFI     O1 2890   2.836   2.554   2.694 -0.4917  0.2836  0.0428
  201HFI     C1 2891   2.779   2.604   2.814 -0.0629 -0.5900 -0.5951
  201HFI     C2 2892   2.679   2.505   2.871 -0.3562 -0.1365 -0.3091
  201HFI     F1 2893   2.738   2.388   2.914 -0.5961 -0.4518 -0.2726
  201HFI     F2 2894   2.581   2.475   2.775 -0.5107 -0.0530  0.0780
  201HFI     F3 2895   2.617   2.558   2.981  0.2831 -0.0795  0.1490
  201HFI     C3 2896   2.720   2.751   2.801  0.9777  0.3717  0.3693
  201HFI     F4 2897   2.698   2.811   2.916  0.0963 -0.2429  0.1721
  201HFI     F5 2898   2.606   2.743   2.737 -0.2730 -0.2873 -0.0827
  201HFI     F6 2899   2.805   2.832   2.729 -0.8078  0.0706  0.0529
  201HFI     H1 2900   2.776   2.486   2.659 -1.0763  0.6711  0.2924
  201HFI     H2 2901   2.864   2.625   2.880  0.2766 -0.6489 -1.0084
  202HFI     O1 2902   0.403   3.175   2.897 -0.4317  0.0476  0.1049
  202HFI     C1 2903   0.464   3.182   3.031 -0.3138 -0.0053 -0.2843
  202HFI     C2 2904   0.359   3.255   3.131 -0.4252 -0.8020 -0.1739
  202HFI     F1 2905   0.398   3.250   3.262  0.1649  0.4448  0.2908
  202HFI     F2 2906   0.232   3.197   3.122 -0.2756 -0.1561  0.5703
  202HFI     F3 2907   0.351   3.384   3.099 -0.3336  0.0157 -0.7704
  202HFI     C3 2908   0.599   3.251   3.041 -0.6356 -0.5214  0.3968
  202HFI     F4 2909   0.642   3.295   2.919  0.2461  0.0048 -0.2947
  202HFI     F5 2910   0.678   3.156   3.089 -0.6152 -0.1971 -0.2531
  202HFI     F6 2911   0.617   3.359   3.126  0.4214 -0.0501 -0.2889
  202HFI     H1 2912   0.467   3.209   2.833 -1.4823  1.4116 -0.2351
  202HFI     H2 2913   0.484   3.081   3.071  2.2744  0.4319 -0.3964
  203HFI     O1 2914   3.274   3.097   3.034  0.1173 -0.1125  0.4544
  203HFI     C1 2915   3.153   3.149   2.970 -0.0709  0.2508 -0.3177
  203HFI     C2 2916   3.029   3.100   3.052 -0.5705  0.1414  0.5164
  203HFI     F1 2917   2.913   3.138   2.994  0.1259 -0.8394 -0.1648
  203HFI     F2 2918   3.029   3.150   3.179  0.0706  0.4433 -0.0046
  203HFI     F3 2919   3.029   2.966   3.054  0.3066 -0.2310 -0.2276
  203HFI     C3 2920   3.146   3.131   2.823  0.1539 -0.2589  0.2555
  203HFI     F4 2921   3.104   3.004   2.784  0.0716  0.0891 -0.7538
  203HFI     F5 2922   3.267   3.140   2.761 -0.0868 -0.2945  0.2022
  203HFI     F6 2923   3.067   3.225   2.757  0.2062 -0.2282  0.5740
  203HFI     H1 2924   3.340   3.168   3.030  1.4896 -1.2951  1.5311
  203HFI     H2 2925   3.150   3.258   2.983  1.0225  0.1732  0.6355
  204HFI     O1 2926   0.116   3.088   2.897  0.0235  0.2111  0.2766
  204HFI     C1 2927   0.084   2.945   2.860 -0.0376  0.0542  0.3460
  204HFI     C2 2928   0.141   2.852   2.963  0.5468 -0.0249  0.0255
  204HFI     F1 2929   0.130   2.724   2.930 -0.0433  0.0223 -0.2427
  204HFI     F2 2930   0.077   2.880   3.078 -0.4073 -0.0037 -0.3414
  204HFI     F3 2931   0.278   2.877   2.981 -0.0857  0.0054  0.4682
  204HFI     C3 2932   0.135   2.911   2.716  0.1155  0.4067 -0.0348
  204HFI     F4 2933   0.086   3.002   2.631  0.2042  0.8729  0.0896
  204HFI     F5 2934   0.094   2.789   2.678 -0.2020 -0.4313 -0.3261
  204HFI     F6 2935   0.270   2.914   2.712  0.7083  0.5138 -0.1918
  204HFI     H1 2936   0.198   3.123   2.858  0.0148  1.2474  1.1680
  204HFI     H2 2937  -0.025   2.929   2.861 -0.2117  0.7465 -2.2898
  205HFI     O1 2938   1.083   3.282   2.773  0.3242 -0.0971 -0.2723
  205HFI     C1 2939   0.983   3.196   2.845 -0.8296 -0.5683  0.5026
  205HFI     C2 2940   1.058   3.073   2.917  0.2974 -0.5374 -0.0928
  205HFI     F1 2941   1.120   2.996   2.825 -0.4931  0.3153  0.0376
  205HFI     F2 2942   0.975   3.001   2.995  0.3457 -0.0027  0.2146
  205HFI     F3 2943   1.157   3.127   2.996  0.3311 -0.2057 -0.0573
  205HFI     C3 2944   0.877   3.151   2.740  0.2576  0.1228 -1.7393
  205HFI     F4 2945   0.793   3.055   2.789  0.9127 -0.2555  0.1037
  205HFI     F5 2946   0.946   3.092   2.637 -0.3051  0.5417 -0.1332
  205HFI     F6 2947   0.801   3.246   2.683 -0.0379  0.0335  0.4853
  205HFI     H1 2948   1.121   3.346   2.835 -1.8874  0.4368  0.5927
  205HFI     H2 2949   0.924   3.254   2.917 -3.0498 -2.1744  0.0545
  206HFI     O1 2950   2.374   0.041   0.249  0.2266  0.1458  0.2703
  206HFI     C1 2951   2.374  -0.006   0.386 -0.0484  0.3784 -0.2977
  206HFI     C2 2952   2.230  -0.073   0.419 -0.7359 -0.7251 -0.2053
  206HFI     F1 2953   2.197  -0.186   0.356  0.1738 -0.5670  0.1551
  206HFI     F2 2954   2.134   0.014   0.384  0.2035  0.4960 -0.0998
  206HFI     F3 2955   2.215  -0.087   0.551 -0.1312 -0.0534 -0.1516
  206HFI     C3 2956   2.408   0.119   0.468  0.2080  0.3138  1.1158
  206HFI     F4 2957   2.532   0.167   0.438  0.0463 -0.4306 -0.0010
  206HFI     F5 2958   2.415   0.073   0.602 -0.2243 -0.1428 -0.5063
  206HFI     F6 2959   2.319   0.218   0.458 -0.3211  0.2002 -0.0141
  206HFI     H1 2960   2.429   0.122   0.251  0.3905  0.0123  2.2661
  206HFI     H2 2961   2.458  -0.075   0.404  0.1171  0.6826  0.1233
  207HFI     O1 2962   0.486   3.224   3.786 -0.1632 -0.0953 -0.4037
  207HFI     C1 2963   0.396   3.155   3.694 -0.2681  0.6847  0.2680
  207HFI     C2 2964   0.472   3.073   3.585  0.6671 -0.4413  0.5408
  207HFI     F1 2965   0.560   3.137   3.514 -0.7293  0.1194  0.3841
  207HFI     F2 2966   0.393   3.002   3.497 -0.0804  0.4745 -0.1385
  207HFI     F3 2967   0.542   2.983   3.656  0.6307 -0.2779 -0.0288
  207HFI     C3 2968   0.282   3.242   3.635  0.5611  0.4277 -0.2206
  207HFI     F4 2969   0.232   3.318   3.738 -0.1876 -0.3959  0.3615
  207HFI     F5 2970   0.187   3.159   3.587  0.3215  0.5295  0.3445
  207HFI     F6 2971   0.323   3.327   3.534 -0.0669 -0.0992  0.2428
  207HFI     H1 2972   0.577   3.215   3.753 -0.6560  0.7757 -2.0751
  207HFI     H2 2973   0.343   3.084   3.759 -0.4819 -1.9049 -2.5957
  208HFI     O1 2974   1.233   2.560   3.412 -0.2715 -0.2734 -0.0146
  208HFI     C1 2975   1.286   2.429   3.411 -0.1434 -0.6057 -0.5047
  208HFI     C2 2976   1.431   2.428   3.343 -0.2416 -0.8402 -0.3736
  208HFI     F1 2977   1.504   2.321   3.388 -0.1338  0.3838  0.0050
  208HFI     F2 2978   1.502   2.526   3.387 -0.3638 -0.0304  0.7363
  208HFI     F3 2979   1.427   2.435   3.209 -0.4849 -0.6640 -0.4495
  208HFI     C3 2980   1.196   2.331   3.336  0.4018  0.2075  0.0734
  208HFI     F4 2981   1.171   2.373   3.209 -0.0894  0.0667 -0.0859
  208HFI     F5 2982   1.073   2.312   3.395  1.0316 -0.7220  0.0123
  208HFI     F6 2983   1.254   2.206   3.333 -0.4223  0.0776  0.2439
  208HFI     H1 2984   1.184   2.576   3.329  1.7174 -2.5249 -1.7030
  208HFI     H2 2985   1.299   2.402   3.517 -0.5884 -0.5539 -0.4353
  209HFI     O1 2986   3.007   1.806   2.799 -0.3411  0.1281  0.0654
  209HFI     C1 2987   2.949   1.905   2.703 -0.1825 -0.2727  0.5505
  209HFI     C2 2988   3.030   2.039   2.711 -0.1625  0.2943 -0.6328
  209HFI     F1 2989   2.999   2.101   2.824  0.3485 -0.6449 -0.3192
  209HFI     F2 2990   3.003   2.119   2.603  0.1688  0.3919 -0.2190
  209HFI     F3 2991   3.167   2.014   2.705 -0.1007 -0.4078  0.1898
  209HFI     C3 2992   2.796   1.933   2.733 -0.0923  0.0702  0.2243
  209HFI     F4 2993   2.749   2.045   2.682  0.1624 -0.1987 -0.3729
  209HFI     F5 2994   2.762   1.930   2.859 -0.3838 -0.5909 -0.0726
  209HFI     F6 2995   2.734   1.832   2.672 -0.0665  0.3066  0.4999
  209HFI     H1 2996   2.948   1.773   2.869  0.5170  0.9957  1.2083
  209HFI     H2 2997   2.964   1.868   2.601  0.6850 -0.7135  0.8301
  210HFI     O1 2998   2.294   2.989   2.478 -0.0694  0.0358  0.2803
  210HFI     C1 2999   2.228   2.870   2.427  0.3807  0.3405 -0.0699
  210HFI     C2 3000   2.232   2.754   2.542 -0.1178  0.2736 -0.1093
  210HFI     F1 3001   2.168   2.638   2.507 -0.2538  0.0568 -0.1779
  210HFI     F2 3002   2.162   2.801   2.646 -0.4149  0.1408 -0.0501
  210HFI     F3 3003   2.359   2.726   2.582  0.2625  0.2586 -0.2799
  210HFI     C3 3004   2.283   2.819   2.289 -0.3129  0.2173 -0.0321
  210HFI     F4 3005   2.283   2.931   2.207 -0.5017 -0.0996  0.1002
  210HFI     F5 3006   2.195   2.730   2.237  0.1858  0.3286  0.1878
  210HFI     F6 3007   2.414   2.773   2.295  0.3483  0.0313  0.6796
  210HFI     H1 3008   2.389   2.972   2.489  0.0726 -1.9983 -3.3374
  210HFI     H2 3009   2.122   2.892   2.409  1.0168  0.8067 -3.5097
  211HFI     O1 3010   0.390   1.104   2.517 -0.0583 -0.3962 -0.1008
  211HFI     C1 3011   0.462   1.202   2.434  0.0718 -0.2654  0.3218
  211HFI     C2 3012   0.572   1.135   2.339 -1.3116 -0.3906 -0.2348
  211HFI     F1 3013   0.578   1.202   2.222  0.0123 -0.2759 -0.0695
  211HFI     F2 3014   0.547   1.005   2.306 -0.1098 -0.3912 -0.7897
  211HFI     F3 3015   0.696   1.143   2.401  0.2735 -0.0126  0.3954
  211HFI     C3 3016   0.510   1.326   2.523 -0.3420  0.4878  0.0670
  211HFI     F4 3017   0.408   1.378   2.592 -0.0920 -0.0701 -0.1162
  211HFI     F5 3018   0.583   1.420   2.455 -0.2111 -0.4623  0.0961
  211HFI     F6 3019   0.583   1.284   2.624 -0.3993  0.5485 -0.2332
  211HFI     H1 3020   0.431   1.016   2.511  1.9884  0.4773  0.5928
  211HFI     H2 3021   0.390   1.245   2.363  0.9106 -0.4737 -0.6680
  212HFI     O1 3022   3.103   2.747   3.732 -0.0309 -0.2637  0.6267
  212HFI     C1 3023   3.041   2.738   3.859  0.3952  0.1134  0.5194
  212HFI     C2 3024   2.981   2.596   3.882  0.8481  0.6593 -0.1765
  212HFI     F1 3025   2.886   2.577   3.796  0.0376 -0.1559  0.7128
  212HFI     F2 3026   2.929   2.578   4.007 -0.1343 -0.1897 -0.2209
  212HFI     F3 3027   3.077   2.508   3.861  0.2632  0.2794 -0.1382
  212HFI     C3 3028   2.932   2.849   3.870 -0.2350  0.0088 -0.1119
  212HFI     F4 3029   2.984   2.965   3.831  0.0508 -0.0779 -0.2061
  212HFI     F5 3030   2.910   2.876   4.002 -0.5545 -0.0752  0.0099
  212HFI     F6 3031   2.820   2.823   3.803  0.2800  0.1606  0.4371
  212HFI     H1 3032   3.054   2.808   3.676 -0.1221 -0.2959  0.6711
  212HFI     H2 3033   3.119   2.743   3.936  2.1683 -3.3660 -0.9437
  213HFI     O1 3034   0.417   0.780   3.375 -0.1173 -0.2712  0.3133
  213HFI     C1 3035   0.497   0.831   3.261  0.0480  0.1867  0.4552
  213HFI     C2 3036   0.653   0.850   3.290  0.5628  0.3501 -0.1338
  213HFI     F1 3037   0.723   0.874   3.175  0.1080  0.2126 -0.3802
  213HFI     F2 3038   0.709   0.739   3.349  0.4217  0.2873 -0.0762
  213HFI     F3 3039   0.673   0.957   3.369 -0.7932  0.0217  0.3938
  213HFI     C3 3040   0.430   0.963   3.213  0.0737  0.3601 -0.0102
  213HFI     F4 3041   0.473   0.995   3.092 -0.0167  0.4700  0.1511
  213HFI     F5 3042   0.431   1.068   3.292 -0.1600  0.2988 -0.0800
  213HFI     F6 3043   0.298   0.926   3.200 -0.1038  0.5563  0.0448
  213HFI     H1 3044   0.331   0.826   3.368  0.4095  1.0798  2.1493
  213HFI     H2 3045   0.488   0.767   3.172  0.0614  1.5146 -0.5205
  214HFI     O1 3046   3.247   3.396   3.646 -1.1419 -0.5243  0.1982
  214HFI     C1 3047   3.300   3.335   3.526  0.6271  0.5102  0.4766
  214HFI     C2 3048   3.255   3.407   3.395  0.4173 -0.4687  0.7437
  214HFI     F1 3049   3.124   3.397   3.374 -0.1949 -0.1378 -0.2987
  214HFI     F2 3050   3.322   3.353   3.292  0.4925 -0.2194 -0.0218
  214HFI     F3 3051   3.282   3.535   3.388 -0.0133  0.5058  0.4852
  214HFI     C3 3052   3.266   3.183   3.532  0.1020  0.1554 -1.0803
  214HFI     F4 3053   3.311   3.137   3.654 -0.2885 -0.6170  0.3449
  214HFI     F5 3054   3.321   3.116   3.431  0.0466  0.2045  0.1428
  214HFI     F6 3055   3.136   3.166   3.532 -0.4025 -0.1597 -0.2939
  214HFI     H1 3056   3.151   3.407   3.640 -1.1056 -0.8373 -1.3117
  214HFI     H2 3057   3.410   3.340   3.531  0.6169 -0.1808  1.5973
  215HFI     O1 3058   0.292   2.001   3.277 -0.4140 -0.1988 -0.4770
  215HFI     C1 3059   0.203   2.098   3.352 -0.1936 -0.2517 -0.2272
  215HFI     C2 3060   0.078   2.134   3.259  0.0595 -0.5504  0.0861
  215HFI     F1 3061  -0.001   2.026   3.241  0.3101 -0.1587 -0.4026
  215HFI     F2 3062   0.121   2.174   3.140  0.3632 -0.6916  0.2212
  215HFI     F3 3063   0.003   2.226   3.318 -0.3161 -0.6378 -0.5143
  215HFI     C3 3064   0.280   2.226   3.397  0.8637 -0.7247 -0.8093
  215HFI     F4 3065   0.204   2.301   3.485 -0.5019 -0.1530 -0.4907
  215HFI     F5 3066   0.333   2.307   3.295 -0.3758 -0.2743  0.1074
  215HFI     F6 3067   0.392   2.189   3.465  0.2251 -0.6419 -0.1255
  215HFI     H1 3068   0.384   2.018   3.304 -0.3510 -1.4281  0.1465
  215HFI     H2 3069   0.166   2.051   3.444  1.0768  0.7478  0.8173
  216HFI     O1 3070   1.061   1.759   2.902 -0.0997  0.6495  0.8003
  216HFI     C1 3071   1.105   1.870   2.825 -0.9449 -0.0363  0.9157
  216HFI     C2 3072   0.991   1.960   2.780  0.1866 -0.6747 -0.1696
  216HFI     F1 3073   0.892   1.889   2.727  0.1802 -0.0328 -0.0658
  216HFI     F2 3074   1.030   2.047   2.686 -0.1152  0.3820 -0.3708
  216HFI     F3 3075   0.951   2.035   2.887  0.0086  0.1080 -0.3178
  216HFI     C3 3076   1.200   1.820   2.707 -0.5127  0.0550  0.1465
  216HFI     F4 3077   1.264   1.920   2.644  0.0928  0.1765  0.0899
  216HFI     F5 3078   1.118   1.752   2.623 -0.3279 -0.0191 -0.6933
  216HFI     F6 3079   1.287   1.730   2.753  0.3393  0.3503  0.4321
  216HFI     H1 3080   1.128   1.689   2.903  0.7832  1.4715  0.4616
  216HFI     H2 3081   1.175   1.927   2.887 -1.3382 -1.3604  2.6107
  217HFI     O1 3082   3.142   0.408   2.395  0.3423  0.0955 -0.0189
  217HFI     C1 3083   3.076   0.327   2.293 -0.2587 -0.3795  0.0196
  217HFI     C2 3084   2.923   0.363   2.285  0.7988  0.4548 -0.5329
  217HFI     F1 3085   2.862   0.377   2.402 -0.0309 -0.2419 -0.0622
  217HFI     F2 3086   2.854   0.266   2.218  0.2093  0.0282  0.4268
  217HFI     F3 3087   2.902   0.475   2.219 -0.2140 -0.4099 -0.1676
  217HFI     C3 3088   3.110   0.174   2.330 -0.3364 -0.5776  0.2941
  217HFI     F4 3089   3.234   0.165   2.383 -0.5058 -0.0930  0.5868
  217HFI     F5 3090   3.105   0.103   2.217 -0.3195 -0.0654 -0.5444
  217HFI     F6 3091   3.028   0.118   2.417 -0.0096  0.0724  0.4875
  217HFI     H1 3092   3.091   0.489   2.413  1.7819  1.2048 -0.8377
  217HFI     H2 3093   3.118   0.356   2.196 -2.6697  1.8792 -0.3980
  218HFI     O1 3094   3.268   3.368   0.938  0.6015  0.0413  0.2961
  218HFI     C1 3095   3.386   3.383   0.847  0.1880  0.2788  0.0054
  218HFI     C2 3096   3.443   3.244   0.800 -0.6746 -0.0606  0.4809
  218HFI     F1 3097   3.560   3.264   0.735  0.0958 -0.6343 -0.1269
  218HFI     F2 3098   3.360   3.186   0.712 -0.0901  0.0913 -0.2159
  218HFI     F3 3099   3.460   3.166   0.913 -0.1108  0.9329 -0.2714
  218HFI     C3 3100   3.506   3.463   0.920  0.0255 -0.0950  0.0876
  218HFI     F4 3101   3.575   3.538   0.832  0.0990  0.0508  0.0627
  218HFI     F5 3102   3.600   3.382   0.971 -0.3291 -0.5564  0.3992
  218HFI     F6 3103   3.466   3.543   1.025  0.2904 -0.4673  0.3054
  218HFI     H1 3104   3.241   3.274   0.947  1.2044 -0.1235  0.3939
  218HFI     H2 3105   3.362   3.439   0.756 -2.9921 -0.6683  0.2068
  219HFI     O1 3106   3.112   2.180   3.086  0.4502 -0.0440 -0.2929
  219HFI     C1 3107   3.001   2.161   3.173  0.3001 -0.1204  0.0988
  219HFI     C2 3108   3.010   2.264   3.289  0.3925 -0.6782  0.1654
  219HFI     F1 3109   3.137   2.262   3.332  0.0077  0.1094  0.6972
  219HFI     F2 3110   2.929   2.232   3.391  0.0870  0.1271  0.2533
  219HFI     F3 3111   2.981   2.390   3.248  0.3883 -0.0188 -0.1498
  219HFI     C3 3112   2.971   2.015   3.213  0.3859  0.4140 -0.2525
  219HFI     F4 3113   3.077   1.961   3.282  0.0158 -0.3243  0.3250
  219HFI     F5 3114   2.956   1.931   3.111  0.1201 -0.1224 -0.8164
  219HFI     F6 3115   2.855   2.008   3.285  0.1574 -0.0230  0.3665
  219HFI     H1 3116   3.192   2.174   3.141 -0.3356  0.8780  0.9921
  219HFI     H2 3117   2.918   2.193   3.108  0.8957 -0.4308 -0.8340
  220HFI     O1 3118   0.464   3.024   2.391  0.3525 -0.5373 -0.1846
  220HFI     C1 3119   0.464   3.165   2.368 -0.1271 -0.6966 -0.3522
  220HFI     C2 3120   0.608   3.204   2.317 -0.0068 -0.3100  0.0413
  220HFI     F1 3121   0.709   3.170   2.398 -0.4184 -0.1488  0.2452
  220HFI     F2 3122   0.621   3.334   2.289  0.1742 -0.3584  0.6036
  220HFI     F3 3123   0.627   3.143   2.204  0.1343  0.1049  0.5087
  220HFI     C3 3124   0.435   3.238   2.505 -0.3662 -0.7423  0.7821
  220HFI     F4 3125   0.511   3.201   2.611  0.0766  0.5756 -0.2901
  220HFI     F5 3126   0.307   3.221   2.538 -0.4992  0.6031 -0.1173
  220HFI     F6 3127   0.441   3.375   2.488 -0.1213  0.2723  0.4047
  220HFI     H1 3128   0.516   2.978   2.322  3.0212 -1.0474  2.0612
  220HFI     H2 3129   0.391   3.189   2.290 -0.4315 -0.5527 -0.0242
  221HFI     O1 3130   1.381   0.656   2.966 -0.1934  0.6249  0.0663
  221HFI     C1 3131   1.471   0.759   2.912 -0.8875  0.4527  0.0320
  221HFI     C2 3132   1.609   0.690   2.892 -0.3428  0.1458  0.4551
  221HFI     F1 3133   1.593   0.572   2.821  0.2521 -0.6909 -0.1537
  221HFI     F2 3134   1.671   0.668   3.011  0.2046 -0.0145  0.1224
  221HFI     F3 3135   1.696   0.767   2.818  0.2001 -0.0911 -0.1066
  221HFI     C3 3136   1.481   0.893   2.990 -0.0384 -0.3985  0.1659
  221HFI     F4 3137   1.556   0.988   2.932 -0.6387 -0.1222  1.0049
  221HFI     F5 3138   1.512   0.883   3.116 -0.2875 -0.5447 -0.5620
  221HFI     F6 3139   1.354   0.947   2.994 -0.5424  0.0547  0.1793
  221HFI     H1 3140   1.427   0.619   3.044 -0.6042 -0.1263 -0.0356
  221HFI     H2 3141   1.425   0.791   2.818 -0.5811 -0.1295 -0.3237
  222HFI     O1 3142   1.876   2.274   2.279 -0.2528 -0.5939 -0.5749
  222HFI     C1 3143   1.948   2.173   2.356 -0.6302 -0.0445 -0.4545
  222HFI     C2 3144   1.991   2.243   2.487 -0.4674  0.9170 -0.6374
  222HFI     F1 3145   1.879   2.275   2.557 -0.1056 -0.3406  0.3476
  222HFI     F2 3146   2.072   2.343   2.462 -0.2308 -0.0517 -0.4327
  222HFI     F3 3147   2.062   2.161   2.567  0.0169  0.0525 -0.4177
  222HFI     C3 3148   2.063   2.121   2.270  0.3693  0.2026 -0.1291
  222HFI     F4 3149   2.016   2.029   2.184  0.0829 -0.5584  0.5084
  222HFI     F5 3150   2.157   2.043   2.338  0.0826 -0.2830  0.3510
  222HFI     F6 3151   2.134   2.222   2.205  0.6161 -0.3785  0.2019
  222HFI     H1 3152   1.855   2.354   2.330 -1.9555 -0.2932 -1.7489
  222HFI     H2 3153   1.879   2.092   2.382 -1.4960  0.1653 -2.0146
  223HFI     O1 3154   0.473   1.040   1.004  0.2214  0.8861 -0.3353
  223HFI     C1 3155   0.460   0.893   1.014  0.1812  0.0347 -0.4305
  223HFI     C2 3156   0.600   0.835   0.981  0.6925 -0.7723  0.0827
  223HFI     F1 3157   0.637   0.854   0.852 -0.1614 -0.0028  0.1540
  223HFI     F2 3158   0.597   0.703   1.003 -0.4435 -0.4105  0.6226
  223HFI     F3 3159   0.691   0.883   1.073 -0.0244  1.0731  0.1227
  223HFI     C3 3160   0.348   0.835   0.925  0.0049 -0.1555  0.0537
  223HFI     F4 3161   0.378   0.864   0.796 -0.5630  0.0575 -0.1358
  223HFI     F5 3162   0.230   0.909   0.944 -0.2004 -0.2525  0.2652
  223HFI     F6 3163   0.318   0.702   0.948 -0.1761 -0.0538  0.7062
  223HFI     H1 3164   0.392   1.086   0.975  0.3255  0.7642 -0.8270
  223HFI     H2 3165   0.446   0.864   1.119  1.1202 -0.1369 -0.3437
  224HFI     O1 3166   0.148   1.752   3.325 -0.0731  0.5538  0.2134
  224HFI     C1 3167   0.187   1.694   3.452  0.0063  0.2959  0.3449
  224HFI     C2 3168   0.095   1.740   3.564  0.2142 -0.2391 -0.0845
  224HFI     F1 3169  -0.034   1.775   3.522  0.8985  0.3485  0.1881
  224HFI     F2 3170   0.145   1.856   3.617  0.0409  0.1719 -0.1309
  224HFI     F3 3171   0.082   1.650   3.667  0.4002  0.2381 -0.0531
  224HFI     C3 3172   0.340   1.692   3.487 -0.5235 -0.3113  0.3838
  224HFI     F4 3173   0.381   1.817   3.510  0.0737  0.2025  0.2866
  224HFI     F5 3174   0.422   1.643   3.385  0.1173  0.0916  0.0099
  224HFI     F6 3175   0.363   1.610   3.597  0.1956 -0.0411 -0.4116
  224HFI     H1 3176   0.197   1.836   3.323 -2.2375  1.8442 -0.7936
  224HFI     H2 3177   0.157   1.588   3.447  0.3390  0.2532 -1.0493
  225HFI     O1 3178   2.137   2.137   0.084  0.4256  0.3269  0.5349
  225HFI     C1 3179   2.126   1.988   0.086  0.4876 -0.7708 -0.0653
  225HFI     C2 3180   2.114   1.939  -0.064 -0.4950  0.4590 -0.4259
  225HFI     F1 3181   2.153   1.811  -0.081 -0.2026 -0.0599  0.6817
  225HFI     F2 3182   2.186   2.018  -0.147  0.3503 -0.4173 -0.1356
  225HFI     F3 3183   1.992   1.961  -0.113  0.0048 -0.0850 -0.3424
  225HFI     C3 3184   2.024   1.929   0.189  0.3459 -0.2260  0.0512
  225HFI     F4 3185   2.054   1.963   0.314  0.1238 -0.1536  0.4878
  225HFI     F5 3186   2.020   1.789   0.172  0.7954  0.3728 -0.3532
  225HFI     F6 3187   1.895   1.979   0.170  0.0156  0.5632 -0.0674
  225HFI     H1 3188   2.129   2.177   0.173  2.1721  2.6928 -0.3200
  225HFI     H2 3189   2.216   1.945   0.134  0.1663 -0.6602  0.6424
  226HFI     O1 3190   0.789   1.742   2.475  0.1445 -0.2628 -0.0864
  226HFI     C1 3191   0.903   1.711   2.382 -0.3919  0.1916  0.4765
  226HFI     C2 3192   0.926   1.836   2.292 -0.7138  0.6735  0.4637
  226HFI     F1 3193   1.033   1.820   2.215 -0.0537  0.0782  0.0249
  226HFI     F2 3194   0.951   1.942   2.371  0.4378  0.7654  0.0373
  226HFI     F3 3195   0.820   1.852   2.207  0.1374 -0.1635 -0.4985
  226HFI     C3 3196   0.872   1.580   2.308  0.4140  0.3375  0.4611
  226HFI     F4 3197   0.969   1.542   2.223  0.5129  0.4518  0.0178
  226HFI     F5 3198   0.758   1.592   2.242  0.1654 -0.0789 -0.2082
  226HFI     F6 3199   0.851   1.470   2.392 -0.6155  0.0966 -0.4900
  226HFI     H1 3200   0.712   1.687   2.453  1.3173 -1.3871 -1.4200
  226HFI     H2 3201   0.997   1.700   2.438  0.8805  1.3916 -1.3745
  227HFI     O1 3202   0.978   3.054   2.337 -0.0084 -0.3542 -0.8086
  227HFI     C1 3203   0.980   2.923   2.271  0.4870  0.6327 -0.1685
  227HFI     C2 3204   0.846   2.843   2.298 -0.6727 -0.4371  0.1020
  227HFI     F1 3205   0.846   2.711   2.267  0.4729 -0.4996 -0.0538
  227HFI     F2 3206   0.748   2.896   2.224 -0.2069  0.1788  0.4666
  227HFI     F3 3207   0.814   2.854   2.434  0.5228  0.2522  0.4883
  227HFI     C3 3208   1.109   2.843   2.300  0.0886 -0.6965 -0.4025
  227HFI     F4 3209   1.115   2.733   2.215 -0.0512  0.2388 -0.0754
  227HFI     F5 3210   1.110   2.798   2.426 -0.1893 -0.1600  0.1640
  227HFI     F6 3211   1.212   2.929   2.295 -0.3662 -0.2866 -0.1039
  227HFI     H1 3212   0.986   3.041   2.433  0.6203 -1.1982 -0.9733
  227HFI     H2 3213   0.982   2.925   2.161  1.9601 -0.3508 -0.1740
  228HFI     O1 3214   0.746   0.071   2.502  0.3806  0.5235 -0.1937
  228HFI     C1 3215   0.760   0.177   2.596 -0.2101 -0.0705 -0.1770
  228HFI     C2 3216   0.903   0.229   2.603  0.5639  0.0240  0.6260
  228HFI     F1 3217   0.910   0.341   2.675  0.3067 -0.3596 -0.4577
  228HFI     F2 3218   0.942   0.248   2.471  0.1360 -0.5180  0.3115
  228HFI     F3 3219   0.993   0.140   2.659  0.6623  0.0910  0.2014
  228HFI     C3 3220   0.692   0.138   2.733 -0.2239 -0.7996  0.2544
  228HFI     F4 3221   0.585   0.057   2.721  0.5765  0.3341 -0.2306
  228HFI     F5 3222   0.662   0.256   2.792 -0.3239 -0.1048  0.8665
  228HFI     F6 3223   0.769   0.074   2.817 -0.4435  0.7576  0.0563
  228HFI     H1 3224   0.829   0.020   2.495 -0.4769 -0.6882 -1.6729
  228HFI     H2 3225   0.703   0.260   2.553 -1.6125 -1.1142 -0.3430
   3.40320   3.43847   3.80000
