[ atomtypes ]
PCX 12.011000 0.0051000 A 0.339967000 0.457730000
PCA 12.011000 0.0189000 A 0.339967000 0.457730000
PCE 12.011000 0.2801000 A 0.339967000 0.457730000
PC 12.011000 0.7464000 A 0.339967000 0.359824000
PO 15.999400 -0.5939000 A 0.295992200 0.878640000
POS 15.999400 -0.4617000 A 0.300001200 0.711280000
PHC 1.008000 0.0000000 A 0.264953300 0.065689000
PH1 1.008000 0.0000000 A 0.247135300 0.065689000
