; Source10.3390/polym13050830 SI TableS2; excluded 1-2/1-3, unscaled 1-4 assumption
[ moleculetype ]
PMMA 2
[ atoms ]
1 PCX 1 PMMA CX1    1 0.002550000 12.011000
2 PCA 1 PMMA CA2    2 0.018900000 12.011000
3 PCX 1 PMMA CX3    3 0.005100000 12.011000
4 PC 1 PMMA C4     4 0.746400000 12.011000
5 PO 1 PMMA O5     5 -0.593900000 15.999400
6 POS 1 PMMA OS6    6 -0.461700000 15.999400
7 PCE 1 PMMA CE7    7 0.280100000 12.011000
8 PCX 1 PMMA CX8    8 0.005100000 12.011000
9 PCA 1 PMMA CA9    9 0.018900000 12.011000
10 PCX 1 PMMA CX10   10 0.005100000 12.011000
11 PC 1 PMMA C11    11 0.746400000 12.011000
12 PO 1 PMMA O12    12 -0.593900000 15.999400
13 POS 1 PMMA OS13   13 -0.461700000 15.999400
14 PCE 1 PMMA CE14   14 0.280100000 12.011000
15 PCX 1 PMMA CX15   15 0.005100000 12.011000
16 PCA 1 PMMA CA16   16 0.018900000 12.011000
17 PCX 1 PMMA CX17   17 0.005100000 12.011000
18 PC 1 PMMA C18    18 0.746400000 12.011000
19 PO 1 PMMA O19    19 -0.593900000 15.999400
20 POS 1 PMMA OS20   20 -0.461700000 15.999400
21 PCE 1 PMMA CE21   21 0.280100000 12.011000
22 PCX 1 PMMA CX22   22 0.005100000 12.011000
23 PCA 1 PMMA CA23   23 0.018900000 12.011000
24 PCX 1 PMMA CX24   24 0.005100000 12.011000
25 PC 1 PMMA C25    25 0.746400000 12.011000
26 PO 1 PMMA O26    26 -0.593900000 15.999400
27 POS 1 PMMA OS27   27 -0.461700000 15.999400
28 PCE 1 PMMA CE28   28 0.280100000 12.011000
29 PCX 1 PMMA CX29   29 0.005100000 12.011000
30 PCA 1 PMMA CA30   30 0.018900000 12.011000
31 PCX 1 PMMA CX31   31 0.005100000 12.011000
32 PC 1 PMMA C32    32 0.746400000 12.011000
33 PO 1 PMMA O33    33 -0.593900000 15.999400
34 POS 1 PMMA OS34   34 -0.461700000 15.999400
35 PCE 1 PMMA CE35   35 0.280100000 12.011000
36 PCX 1 PMMA CX36   36 0.005100000 12.011000
37 PCA 1 PMMA CA37   37 0.018900000 12.011000
38 PCX 1 PMMA CX38   38 0.005100000 12.011000
39 PC 1 PMMA C39    39 0.746400000 12.011000
40 PO 1 PMMA O40    40 -0.593900000 15.999400
41 POS 1 PMMA OS41   41 -0.461700000 15.999400
42 PCE 1 PMMA CE42   42 0.280100000 12.011000
43 PCX 1 PMMA CX43   43 0.005100000 12.011000
44 PCA 1 PMMA CA44   44 0.018900000 12.011000
45 PCX 1 PMMA CX45   45 0.005100000 12.011000
46 PC 1 PMMA C46    46 0.746400000 12.011000
47 PO 1 PMMA O47    47 -0.593900000 15.999400
48 POS 1 PMMA OS48   48 -0.461700000 15.999400
49 PCE 1 PMMA CE49   49 0.280100000 12.011000
50 PCX 1 PMMA CX50   50 0.005100000 12.011000
51 PCA 1 PMMA CA51   51 0.018900000 12.011000
52 PCX 1 PMMA CX52   52 0.005100000 12.011000
53 PC 1 PMMA C53    53 0.746400000 12.011000
54 PO 1 PMMA O54    54 -0.593900000 15.999400
55 POS 1 PMMA OS55   55 -0.461700000 15.999400
56 PCE 1 PMMA CE56   56 0.280100000 12.011000
57 PCX 1 PMMA CX57   57 0.002550000 12.011000
58 PHC 1 PMMA HC58   58 0.000000000 1.008000
59 PHC 1 PMMA HC59   59 0.000000000 1.008000
60 PHC 1 PMMA HC60   60 0.000000000 1.008000
61 PHC 1 PMMA HC61   61 0.000000000 1.008000
62 PHC 1 PMMA HC62   62 0.000000000 1.008000
63 PHC 1 PMMA HC63   63 0.000000000 1.008000
64 PH1 1 PMMA H164   64 0.000000000 1.008000
65 PH1 1 PMMA H165   65 0.000000000 1.008000
66 PH1 1 PMMA H166   66 0.000000000 1.008000
67 PHC 1 PMMA HC67   67 0.000000000 1.008000
68 PHC 1 PMMA HC68   68 0.000000000 1.008000
69 PHC 1 PMMA HC69   69 0.000000000 1.008000
70 PHC 1 PMMA HC70   70 0.000000000 1.008000
71 PHC 1 PMMA HC71   71 0.000000000 1.008000
72 PH1 1 PMMA H172   72 0.000000000 1.008000
73 PH1 1 PMMA H173   73 0.000000000 1.008000
74 PH1 1 PMMA H174   74 0.000000000 1.008000
75 PHC 1 PMMA HC75   75 0.000000000 1.008000
76 PHC 1 PMMA HC76   76 0.000000000 1.008000
77 PHC 1 PMMA HC77   77 0.000000000 1.008000
78 PHC 1 PMMA HC78   78 0.000000000 1.008000
79 PHC 1 PMMA HC79   79 0.000000000 1.008000
80 PH1 1 PMMA H180   80 0.000000000 1.008000
81 PH1 1 PMMA H181   81 0.000000000 1.008000
82 PH1 1 PMMA H182   82 0.000000000 1.008000
83 PHC 1 PMMA HC83   83 0.000000000 1.008000
84 PHC 1 PMMA HC84   84 0.000000000 1.008000
85 PHC 1 PMMA HC85   85 0.000000000 1.008000
86 PHC 1 PMMA HC86   86 0.000000000 1.008000
87 PHC 1 PMMA HC87   87 0.000000000 1.008000
88 PH1 1 PMMA H188   88 0.000000000 1.008000
89 PH1 1 PMMA H189   89 0.000000000 1.008000
90 PH1 1 PMMA H190   90 0.000000000 1.008000
91 PHC 1 PMMA HC91   91 0.000000000 1.008000
92 PHC 1 PMMA HC92   92 0.000000000 1.008000
93 PHC 1 PMMA HC93   93 0.000000000 1.008000
94 PHC 1 PMMA HC94   94 0.000000000 1.008000
95 PHC 1 PMMA HC95   95 0.000000000 1.008000
96 PH1 1 PMMA H196   96 0.000000000 1.008000
97 PH1 1 PMMA H197   97 0.000000000 1.008000
98 PH1 1 PMMA H198   98 0.000000000 1.008000
99 PHC 1 PMMA HC99   99 0.000000000 1.008000
100 PHC 1 PMMA HC100  100 0.000000000 1.008000
101 PHC 1 PMMA HC101  101 0.000000000 1.008000
102 PHC 1 PMMA HC102  102 0.000000000 1.008000
103 PHC 1 PMMA HC103  103 0.000000000 1.008000
104 PH1 1 PMMA H1104  104 0.000000000 1.008000
105 PH1 1 PMMA H1105  105 0.000000000 1.008000
106 PH1 1 PMMA H1106  106 0.000000000 1.008000
107 PHC 1 PMMA HC107  107 0.000000000 1.008000
108 PHC 1 PMMA HC108  108 0.000000000 1.008000
109 PHC 1 PMMA HC109  109 0.000000000 1.008000
110 PHC 1 PMMA HC110  110 0.000000000 1.008000
111 PHC 1 PMMA HC111  111 0.000000000 1.008000
112 PH1 1 PMMA H1112  112 0.000000000 1.008000
113 PH1 1 PMMA H1113  113 0.000000000 1.008000
114 PH1 1 PMMA H1114  114 0.000000000 1.008000
115 PHC 1 PMMA HC115  115 0.000000000 1.008000
116 PHC 1 PMMA HC116  116 0.000000000 1.008000
117 PHC 1 PMMA HC117  117 0.000000000 1.008000
118 PHC 1 PMMA HC118  118 0.000000000 1.008000
119 PHC 1 PMMA HC119  119 0.000000000 1.008000
120 PH1 1 PMMA H1120  120 0.000000000 1.008000
121 PH1 1 PMMA H1121  121 0.000000000 1.008000
122 PH1 1 PMMA H1122  122 0.000000000 1.008000
123 PHC 1 PMMA HC123  123 0.000000000 1.008000
124 PHC 1 PMMA HC124  124 0.000000000 1.008000
125 PHC 1 PMMA HC125  125 0.000000000 1.008000
[ bonds ]
1 2 1 0.152000000 259408.000000000
2 3 1 0.152000000 259408.000000000
2 4 1 0.150000000 276144.000000000
4 5 1 0.120400000 835963.200000000
4 6 1 0.134300000 344175.900000000
6 7 1 0.141000000 267776.000000000
2 8 1 0.152000000 259408.000000000
8 9 1 0.152000000 259408.000000000
9 10 1 0.152000000 259408.000000000
9 11 1 0.150000000 276144.000000000
11 12 1 0.120400000 835963.200000000
11 13 1 0.134300000 344175.900000000
13 14 1 0.141000000 267776.000000000
9 15 1 0.152000000 259408.000000000
15 16 1 0.152000000 259408.000000000
16 17 1 0.152000000 259408.000000000
16 18 1 0.150000000 276144.000000000
18 19 1 0.120400000 835963.200000000
18 20 1 0.134300000 344175.900000000
20 21 1 0.141000000 267776.000000000
16 22 1 0.152000000 259408.000000000
22 23 1 0.152000000 259408.000000000
23 24 1 0.152000000 259408.000000000
23 25 1 0.150000000 276144.000000000
25 26 1 0.120400000 835963.200000000
25 27 1 0.134300000 344175.900000000
27 28 1 0.141000000 267776.000000000
23 29 1 0.152000000 259408.000000000
29 30 1 0.152000000 259408.000000000
30 31 1 0.152000000 259408.000000000
30 32 1 0.150000000 276144.000000000
32 33 1 0.120400000 835963.200000000
32 34 1 0.134300000 344175.900000000
34 35 1 0.141000000 267776.000000000
30 36 1 0.152000000 259408.000000000
36 37 1 0.152000000 259408.000000000
37 38 1 0.152000000 259408.000000000
37 39 1 0.150000000 276144.000000000
39 40 1 0.120400000 835963.200000000
39 41 1 0.134300000 344175.900000000
41 42 1 0.141000000 267776.000000000
37 43 1 0.152000000 259408.000000000
43 44 1 0.152000000 259408.000000000
44 45 1 0.152000000 259408.000000000
44 46 1 0.150000000 276144.000000000
46 47 1 0.120400000 835963.200000000
46 48 1 0.134300000 344175.900000000
48 49 1 0.141000000 267776.000000000
44 50 1 0.152000000 259408.000000000
50 51 1 0.152000000 259408.000000000
51 52 1 0.152000000 259408.000000000
51 53 1 0.150000000 276144.000000000
53 54 1 0.120400000 835963.200000000
53 55 1 0.134300000 344175.900000000
55 56 1 0.141000000 267776.000000000
51 57 1 0.152000000 259408.000000000
1 58 1 0.109500000 301248.000000000
1 59 1 0.109500000 301248.000000000
1 60 1 0.109500000 301248.000000000
3 61 1 0.109500000 301248.000000000
3 62 1 0.109500000 301248.000000000
3 63 1 0.109500000 301248.000000000
7 64 1 0.109200000 343088.000000000
7 65 1 0.109200000 343088.000000000
7 66 1 0.109200000 343088.000000000
8 67 1 0.109500000 301248.000000000
8 68 1 0.109500000 301248.000000000
10 69 1 0.109500000 301248.000000000
10 70 1 0.109500000 301248.000000000
10 71 1 0.109500000 301248.000000000
14 72 1 0.109200000 343088.000000000
14 73 1 0.109200000 343088.000000000
14 74 1 0.109200000 343088.000000000
15 75 1 0.109500000 301248.000000000
15 76 1 0.109500000 301248.000000000
17 77 1 0.109500000 301248.000000000
17 78 1 0.109500000 301248.000000000
17 79 1 0.109500000 301248.000000000
21 80 1 0.109200000 343088.000000000
21 81 1 0.109200000 343088.000000000
21 82 1 0.109200000 343088.000000000
22 83 1 0.109500000 301248.000000000
22 84 1 0.109500000 301248.000000000
24 85 1 0.109500000 301248.000000000
24 86 1 0.109500000 301248.000000000
24 87 1 0.109500000 301248.000000000
28 88 1 0.109200000 343088.000000000
28 89 1 0.109200000 343088.000000000
28 90 1 0.109200000 343088.000000000
29 91 1 0.109500000 301248.000000000
29 92 1 0.109500000 301248.000000000
31 93 1 0.109500000 301248.000000000
31 94 1 0.109500000 301248.000000000
31 95 1 0.109500000 301248.000000000
35 96 1 0.109200000 343088.000000000
35 97 1 0.109200000 343088.000000000
35 98 1 0.109200000 343088.000000000
36 99 1 0.109500000 301248.000000000
36 100 1 0.109500000 301248.000000000
38 101 1 0.109500000 301248.000000000
38 102 1 0.109500000 301248.000000000
38 103 1 0.109500000 301248.000000000
42 104 1 0.109200000 343088.000000000
42 105 1 0.109200000 343088.000000000
42 106 1 0.109200000 343088.000000000
43 107 1 0.109500000 301248.000000000
43 108 1 0.109500000 301248.000000000
45 109 1 0.109500000 301248.000000000
45 110 1 0.109500000 301248.000000000
45 111 1 0.109500000 301248.000000000
49 112 1 0.109200000 343088.000000000
49 113 1 0.109200000 343088.000000000
49 114 1 0.109200000 343088.000000000
50 115 1 0.109500000 301248.000000000
50 116 1 0.109500000 301248.000000000
52 117 1 0.109500000 301248.000000000
52 118 1 0.109500000 301248.000000000
52 119 1 0.109500000 301248.000000000
56 120 1 0.109200000 343088.000000000
56 121 1 0.109200000 343088.000000000
56 122 1 0.109200000 343088.000000000
57 123 1 0.109500000 301248.000000000
57 124 1 0.109500000 301248.000000000
57 125 1 0.109500000 301248.000000000
[ angles ]
2 1 58 1 112.600000000 376.600000000
2 1 59 1 112.600000000 376.600000000
2 1 60 1 112.600000000 376.600000000
58 1 59 1 109.500000000 334.700000000
58 1 60 1 109.500000000 334.700000000
59 1 60 1 109.500000000 334.700000000
1 2 3 1 113.500000000 376.600000000
1 2 4 1 111.500000000 334.700000000
1 2 8 1 113.500000000 376.600000000
3 2 4 1 111.500000000 334.700000000
3 2 8 1 113.500000000 376.600000000
4 2 8 1 111.500000000 334.700000000
2 3 61 1 112.600000000 376.600000000
2 3 62 1 112.600000000 376.600000000
2 3 63 1 112.600000000 376.600000000
61 3 62 1 109.500000000 334.700000000
61 3 63 1 109.500000000 334.700000000
62 3 63 1 109.500000000 334.700000000
2 4 5 1 125.400000000 493.700000000
2 4 6 1 111.000000000 418.400000000
5 4 6 1 122.500000000 861.900000000
4 6 7 1 114.000000000 423.400000000
6 7 64 1 110.000000000 502.100000000
6 7 65 1 110.000000000 502.100000000
6 7 66 1 110.000000000 502.100000000
64 7 65 1 109.500000000 376.600000000
64 7 66 1 109.500000000 376.600000000
65 7 66 1 109.500000000 376.600000000
2 8 9 1 113.500000000 376.600000000
2 8 67 1 112.600000000 376.600000000
2 8 68 1 112.600000000 376.600000000
9 8 67 1 112.600000000 376.600000000
9 8 68 1 112.600000000 376.600000000
67 8 68 1 109.500000000 334.700000000
8 9 10 1 113.500000000 376.600000000
8 9 11 1 111.500000000 334.700000000
8 9 15 1 113.500000000 376.600000000
10 9 11 1 111.500000000 334.700000000
10 9 15 1 113.500000000 376.600000000
11 9 15 1 111.500000000 334.700000000
9 10 69 1 112.600000000 376.600000000
9 10 70 1 112.600000000 376.600000000
9 10 71 1 112.600000000 376.600000000
69 10 70 1 109.500000000 334.700000000
69 10 71 1 109.500000000 334.700000000
70 10 71 1 109.500000000 334.700000000
9 11 12 1 125.400000000 493.700000000
9 11 13 1 111.000000000 418.400000000
12 11 13 1 122.500000000 861.900000000
11 13 14 1 114.000000000 423.400000000
13 14 72 1 110.000000000 502.100000000
13 14 73 1 110.000000000 502.100000000
13 14 74 1 110.000000000 502.100000000
72 14 73 1 109.500000000 376.600000000
72 14 74 1 109.500000000 376.600000000
73 14 74 1 109.500000000 376.600000000
9 15 16 1 113.500000000 376.600000000
9 15 75 1 112.600000000 376.600000000
9 15 76 1 112.600000000 376.600000000
16 15 75 1 112.600000000 376.600000000
16 15 76 1 112.600000000 376.600000000
75 15 76 1 109.500000000 334.700000000
15 16 17 1 113.500000000 376.600000000
15 16 18 1 111.500000000 334.700000000
15 16 22 1 113.500000000 376.600000000
17 16 18 1 111.500000000 334.700000000
17 16 22 1 113.500000000 376.600000000
18 16 22 1 111.500000000 334.700000000
16 17 77 1 112.600000000 376.600000000
16 17 78 1 112.600000000 376.600000000
16 17 79 1 112.600000000 376.600000000
77 17 78 1 109.500000000 334.700000000
77 17 79 1 109.500000000 334.700000000
78 17 79 1 109.500000000 334.700000000
16 18 19 1 125.400000000 493.700000000
16 18 20 1 111.000000000 418.400000000
19 18 20 1 122.500000000 861.900000000
18 20 21 1 114.000000000 423.400000000
20 21 80 1 110.000000000 502.100000000
20 21 81 1 110.000000000 502.100000000
20 21 82 1 110.000000000 502.100000000
80 21 81 1 109.500000000 376.600000000
80 21 82 1 109.500000000 376.600000000
81 21 82 1 109.500000000 376.600000000
16 22 23 1 113.500000000 376.600000000
16 22 83 1 112.600000000 376.600000000
16 22 84 1 112.600000000 376.600000000
23 22 83 1 112.600000000 376.600000000
23 22 84 1 112.600000000 376.600000000
83 22 84 1 109.500000000 334.700000000
22 23 24 1 113.500000000 376.600000000
22 23 25 1 111.500000000 334.700000000
22 23 29 1 113.500000000 376.600000000
24 23 25 1 111.500000000 334.700000000
24 23 29 1 113.500000000 376.600000000
25 23 29 1 111.500000000 334.700000000
23 24 85 1 112.600000000 376.600000000
23 24 86 1 112.600000000 376.600000000
23 24 87 1 112.600000000 376.600000000
85 24 86 1 109.500000000 334.700000000
85 24 87 1 109.500000000 334.700000000
86 24 87 1 109.500000000 334.700000000
23 25 26 1 125.400000000 493.700000000
23 25 27 1 111.000000000 418.400000000
26 25 27 1 122.500000000 861.900000000
25 27 28 1 114.000000000 423.400000000
27 28 88 1 110.000000000 502.100000000
27 28 89 1 110.000000000 502.100000000
27 28 90 1 110.000000000 502.100000000
88 28 89 1 109.500000000 376.600000000
88 28 90 1 109.500000000 376.600000000
89 28 90 1 109.500000000 376.600000000
23 29 30 1 113.500000000 376.600000000
23 29 91 1 112.600000000 376.600000000
23 29 92 1 112.600000000 376.600000000
30 29 91 1 112.600000000 376.600000000
30 29 92 1 112.600000000 376.600000000
91 29 92 1 109.500000000 334.700000000
29 30 31 1 113.500000000 376.600000000
29 30 32 1 111.500000000 334.700000000
29 30 36 1 113.500000000 376.600000000
31 30 32 1 111.500000000 334.700000000
31 30 36 1 113.500000000 376.600000000
32 30 36 1 111.500000000 334.700000000
30 31 93 1 112.600000000 376.600000000
30 31 94 1 112.600000000 376.600000000
30 31 95 1 112.600000000 376.600000000
93 31 94 1 109.500000000 334.700000000
93 31 95 1 109.500000000 334.700000000
94 31 95 1 109.500000000 334.700000000
30 32 33 1 125.400000000 493.700000000
30 32 34 1 111.000000000 418.400000000
33 32 34 1 122.500000000 861.900000000
32 34 35 1 114.000000000 423.400000000
34 35 96 1 110.000000000 502.100000000
34 35 97 1 110.000000000 502.100000000
34 35 98 1 110.000000000 502.100000000
96 35 97 1 109.500000000 376.600000000
96 35 98 1 109.500000000 376.600000000
97 35 98 1 109.500000000 376.600000000
30 36 37 1 113.500000000 376.600000000
30 36 99 1 112.600000000 376.600000000
30 36 100 1 112.600000000 376.600000000
37 36 99 1 112.600000000 376.600000000
37 36 100 1 112.600000000 376.600000000
99 36 100 1 109.500000000 334.700000000
36 37 38 1 113.500000000 376.600000000
36 37 39 1 111.500000000 334.700000000
36 37 43 1 113.500000000 376.600000000
38 37 39 1 111.500000000 334.700000000
38 37 43 1 113.500000000 376.600000000
39 37 43 1 111.500000000 334.700000000
37 38 101 1 112.600000000 376.600000000
37 38 102 1 112.600000000 376.600000000
37 38 103 1 112.600000000 376.600000000
101 38 102 1 109.500000000 334.700000000
101 38 103 1 109.500000000 334.700000000
102 38 103 1 109.500000000 334.700000000
37 39 40 1 125.400000000 493.700000000
37 39 41 1 111.000000000 418.400000000
40 39 41 1 122.500000000 861.900000000
39 41 42 1 114.000000000 423.400000000
41 42 104 1 110.000000000 502.100000000
41 42 105 1 110.000000000 502.100000000
41 42 106 1 110.000000000 502.100000000
104 42 105 1 109.500000000 376.600000000
104 42 106 1 109.500000000 376.600000000
105 42 106 1 109.500000000 376.600000000
37 43 44 1 113.500000000 376.600000000
37 43 107 1 112.600000000 376.600000000
37 43 108 1 112.600000000 376.600000000
44 43 107 1 112.600000000 376.600000000
44 43 108 1 112.600000000 376.600000000
107 43 108 1 109.500000000 334.700000000
43 44 45 1 113.500000000 376.600000000
43 44 46 1 111.500000000 334.700000000
43 44 50 1 113.500000000 376.600000000
45 44 46 1 111.500000000 334.700000000
45 44 50 1 113.500000000 376.600000000
46 44 50 1 111.500000000 334.700000000
44 45 109 1 112.600000000 376.600000000
44 45 110 1 112.600000000 376.600000000
44 45 111 1 112.600000000 376.600000000
109 45 110 1 109.500000000 334.700000000
109 45 111 1 109.500000000 334.700000000
110 45 111 1 109.500000000 334.700000000
44 46 47 1 125.400000000 493.700000000
44 46 48 1 111.000000000 418.400000000
47 46 48 1 122.500000000 861.900000000
46 48 49 1 114.000000000 423.400000000
48 49 112 1 110.000000000 502.100000000
48 49 113 1 110.000000000 502.100000000
48 49 114 1 110.000000000 502.100000000
112 49 113 1 109.500000000 376.600000000
112 49 114 1 109.500000000 376.600000000
113 49 114 1 109.500000000 376.600000000
44 50 51 1 113.500000000 376.600000000
44 50 115 1 112.600000000 376.600000000
44 50 116 1 112.600000000 376.600000000
51 50 115 1 112.600000000 376.600000000
51 50 116 1 112.600000000 376.600000000
115 50 116 1 109.500000000 334.700000000
50 51 52 1 113.500000000 376.600000000
50 51 53 1 111.500000000 334.700000000
50 51 57 1 113.500000000 376.600000000
52 51 53 1 111.500000000 334.700000000
52 51 57 1 113.500000000 376.600000000
53 51 57 1 111.500000000 334.700000000
51 52 117 1 112.600000000 376.600000000
51 52 118 1 112.600000000 376.600000000
51 52 119 1 112.600000000 376.600000000
117 52 118 1 109.500000000 334.700000000
117 52 119 1 109.500000000 334.700000000
118 52 119 1 109.500000000 334.700000000
51 53 54 1 125.400000000 493.700000000
51 53 55 1 111.000000000 418.400000000
54 53 55 1 122.500000000 861.900000000
53 55 56 1 114.000000000 423.400000000
55 56 120 1 110.000000000 502.100000000
55 56 121 1 110.000000000 502.100000000
55 56 122 1 110.000000000 502.100000000
120 56 121 1 109.500000000 376.600000000
120 56 122 1 109.500000000 376.600000000
121 56 122 1 109.500000000 376.600000000
51 57 123 1 112.600000000 376.600000000
51 57 124 1 112.600000000 376.600000000
51 57 125 1 112.600000000 376.600000000
123 57 124 1 109.500000000 334.700000000
123 57 125 1 109.500000000 334.700000000
124 57 125 1 109.500000000 334.700000000
[ dihedrals ]
58 1 2 3 9 0.0 0.418400000 3
58 1 2 4 9 0.0 -0.125520000 3
58 1 2 8 9 0.0 0.418400000 3
59 1 2 3 9 0.0 0.418400000 3
59 1 2 4 9 0.0 -0.125520000 3
59 1 2 8 9 0.0 0.418400000 3
60 1 2 3 9 0.0 0.418400000 3
60 1 2 4 9 0.0 -0.125520000 3
60 1 2 8 9 0.0 0.418400000 3
1 2 3 61 9 0.0 0.418400000 3
1 2 3 62 9 0.0 0.418400000 3
1 2 3 63 9 0.0 0.418400000 3
4 2 3 61 9 0.0 -0.125520000 3
4 2 3 62 9 0.0 -0.125520000 3
4 2 3 63 9 0.0 -0.125520000 3
8 2 3 61 9 0.0 0.418400000 3
8 2 3 62 9 0.0 0.418400000 3
8 2 3 63 9 0.0 0.418400000 3
1 2 4 5 9 0.0 -1.715400000 2
1 2 4 5 9 0.0 -1.213400000 3
1 2 4 6 9 0.0 -1.882800000 2
1 2 4 6 9 0.0 -1.380700000 3
3 2 4 5 9 0.0 -1.715400000 2
3 2 4 5 9 0.0 -1.213400000 3
3 2 4 6 9 0.0 -1.882800000 2
3 2 4 6 9 0.0 -1.380700000 3
8 2 4 5 9 0.0 -1.715400000 2
8 2 4 5 9 0.0 -1.213400000 3
8 2 4 6 9 0.0 -1.882800000 2
8 2 4 6 9 0.0 -1.380700000 3
2 4 6 7 9 0.0 -2.719600000 1
2 4 6 7 9 0.0 -11.506000000 2
5 4 6 7 9 0.0 -17.614640000 2
5 4 6 7 9 0.0 -3.054320000 3
4 6 7 64 9 0.0 0.627600000 3
4 6 7 65 9 0.0 0.627600000 3
4 6 7 66 9 0.0 0.627600000 3
1 2 8 9 9 0.0 1.882800000 1
1 2 8 67 9 0.0 0.418400000 3
1 2 8 68 9 0.0 0.418400000 3
3 2 8 9 9 0.0 1.882800000 1
3 2 8 67 9 0.0 0.418400000 3
3 2 8 68 9 0.0 0.418400000 3
4 2 8 67 9 0.0 -0.125520000 3
4 2 8 68 9 0.0 -0.125520000 3
2 8 9 10 9 0.0 1.882800000 1
2 8 9 15 9 0.0 1.882800000 1
67 8 9 10 9 0.0 0.418400000 3
67 8 9 11 9 0.0 -0.125520000 3
67 8 9 15 9 0.0 0.418400000 3
68 8 9 10 9 0.0 0.418400000 3
68 8 9 11 9 0.0 -0.125520000 3
68 8 9 15 9 0.0 0.418400000 3
8 9 10 69 9 0.0 0.418400000 3
8 9 10 70 9 0.0 0.418400000 3
8 9 10 71 9 0.0 0.418400000 3
11 9 10 69 9 0.0 -0.125520000 3
11 9 10 70 9 0.0 -0.125520000 3
11 9 10 71 9 0.0 -0.125520000 3
15 9 10 69 9 0.0 0.418400000 3
15 9 10 70 9 0.0 0.418400000 3
15 9 10 71 9 0.0 0.418400000 3
8 9 11 12 9 0.0 -1.715400000 2
8 9 11 12 9 0.0 -1.213400000 3
8 9 11 13 9 0.0 -1.882800000 2
8 9 11 13 9 0.0 -1.380700000 3
10 9 11 12 9 0.0 -1.715400000 2
10 9 11 12 9 0.0 -1.213400000 3
10 9 11 13 9 0.0 -1.882800000 2
10 9 11 13 9 0.0 -1.380700000 3
15 9 11 12 9 0.0 -1.715400000 2
15 9 11 12 9 0.0 -1.213400000 3
15 9 11 13 9 0.0 -1.882800000 2
15 9 11 13 9 0.0 -1.380700000 3
9 11 13 14 9 0.0 -2.719600000 1
9 11 13 14 9 0.0 -11.506000000 2
12 11 13 14 9 0.0 -17.614640000 2
12 11 13 14 9 0.0 -3.054320000 3
11 13 14 72 9 0.0 0.627600000 3
11 13 14 73 9 0.0 0.627600000 3
11 13 14 74 9 0.0 0.627600000 3
8 9 15 16 9 0.0 1.882800000 1
8 9 15 75 9 0.0 0.418400000 3
8 9 15 76 9 0.0 0.418400000 3
10 9 15 16 9 0.0 1.882800000 1
10 9 15 75 9 0.0 0.418400000 3
10 9 15 76 9 0.0 0.418400000 3
11 9 15 75 9 0.0 -0.125520000 3
11 9 15 76 9 0.0 -0.125520000 3
9 15 16 17 9 0.0 1.882800000 1
9 15 16 22 9 0.0 1.882800000 1
75 15 16 17 9 0.0 0.418400000 3
75 15 16 18 9 0.0 -0.125520000 3
75 15 16 22 9 0.0 0.418400000 3
76 15 16 17 9 0.0 0.418400000 3
76 15 16 18 9 0.0 -0.125520000 3
76 15 16 22 9 0.0 0.418400000 3
15 16 17 77 9 0.0 0.418400000 3
15 16 17 78 9 0.0 0.418400000 3
15 16 17 79 9 0.0 0.418400000 3
18 16 17 77 9 0.0 -0.125520000 3
18 16 17 78 9 0.0 -0.125520000 3
18 16 17 79 9 0.0 -0.125520000 3
22 16 17 77 9 0.0 0.418400000 3
22 16 17 78 9 0.0 0.418400000 3
22 16 17 79 9 0.0 0.418400000 3
15 16 18 19 9 0.0 -1.715400000 2
15 16 18 19 9 0.0 -1.213400000 3
15 16 18 20 9 0.0 -1.882800000 2
15 16 18 20 9 0.0 -1.380700000 3
17 16 18 19 9 0.0 -1.715400000 2
17 16 18 19 9 0.0 -1.213400000 3
17 16 18 20 9 0.0 -1.882800000 2
17 16 18 20 9 0.0 -1.380700000 3
22 16 18 19 9 0.0 -1.715400000 2
22 16 18 19 9 0.0 -1.213400000 3
22 16 18 20 9 0.0 -1.882800000 2
22 16 18 20 9 0.0 -1.380700000 3
16 18 20 21 9 0.0 -2.719600000 1
16 18 20 21 9 0.0 -11.506000000 2
19 18 20 21 9 0.0 -17.614640000 2
19 18 20 21 9 0.0 -3.054320000 3
18 20 21 80 9 0.0 0.627600000 3
18 20 21 81 9 0.0 0.627600000 3
18 20 21 82 9 0.0 0.627600000 3
15 16 22 23 9 0.0 1.882800000 1
15 16 22 83 9 0.0 0.418400000 3
15 16 22 84 9 0.0 0.418400000 3
17 16 22 23 9 0.0 1.882800000 1
17 16 22 83 9 0.0 0.418400000 3
17 16 22 84 9 0.0 0.418400000 3
18 16 22 83 9 0.0 -0.125520000 3
18 16 22 84 9 0.0 -0.125520000 3
16 22 23 24 9 0.0 1.882800000 1
16 22 23 29 9 0.0 1.882800000 1
83 22 23 24 9 0.0 0.418400000 3
83 22 23 25 9 0.0 -0.125520000 3
83 22 23 29 9 0.0 0.418400000 3
84 22 23 24 9 0.0 0.418400000 3
84 22 23 25 9 0.0 -0.125520000 3
84 22 23 29 9 0.0 0.418400000 3
22 23 24 85 9 0.0 0.418400000 3
22 23 24 86 9 0.0 0.418400000 3
22 23 24 87 9 0.0 0.418400000 3
25 23 24 85 9 0.0 -0.125520000 3
25 23 24 86 9 0.0 -0.125520000 3
25 23 24 87 9 0.0 -0.125520000 3
29 23 24 85 9 0.0 0.418400000 3
29 23 24 86 9 0.0 0.418400000 3
29 23 24 87 9 0.0 0.418400000 3
22 23 25 26 9 0.0 -1.715400000 2
22 23 25 26 9 0.0 -1.213400000 3
22 23 25 27 9 0.0 -1.882800000 2
22 23 25 27 9 0.0 -1.380700000 3
24 23 25 26 9 0.0 -1.715400000 2
24 23 25 26 9 0.0 -1.213400000 3
24 23 25 27 9 0.0 -1.882800000 2
24 23 25 27 9 0.0 -1.380700000 3
29 23 25 26 9 0.0 -1.715400000 2
29 23 25 26 9 0.0 -1.213400000 3
29 23 25 27 9 0.0 -1.882800000 2
29 23 25 27 9 0.0 -1.380700000 3
23 25 27 28 9 0.0 -2.719600000 1
23 25 27 28 9 0.0 -11.506000000 2
26 25 27 28 9 0.0 -17.614640000 2
26 25 27 28 9 0.0 -3.054320000 3
25 27 28 88 9 0.0 0.627600000 3
25 27 28 89 9 0.0 0.627600000 3
25 27 28 90 9 0.0 0.627600000 3
22 23 29 30 9 0.0 1.882800000 1
22 23 29 91 9 0.0 0.418400000 3
22 23 29 92 9 0.0 0.418400000 3
24 23 29 30 9 0.0 1.882800000 1
24 23 29 91 9 0.0 0.418400000 3
24 23 29 92 9 0.0 0.418400000 3
25 23 29 91 9 0.0 -0.125520000 3
25 23 29 92 9 0.0 -0.125520000 3
23 29 30 31 9 0.0 1.882800000 1
23 29 30 36 9 0.0 1.882800000 1
91 29 30 31 9 0.0 0.418400000 3
91 29 30 32 9 0.0 -0.125520000 3
91 29 30 36 9 0.0 0.418400000 3
92 29 30 31 9 0.0 0.418400000 3
92 29 30 32 9 0.0 -0.125520000 3
92 29 30 36 9 0.0 0.418400000 3
29 30 31 93 9 0.0 0.418400000 3
29 30 31 94 9 0.0 0.418400000 3
29 30 31 95 9 0.0 0.418400000 3
32 30 31 93 9 0.0 -0.125520000 3
32 30 31 94 9 0.0 -0.125520000 3
32 30 31 95 9 0.0 -0.125520000 3
36 30 31 93 9 0.0 0.418400000 3
36 30 31 94 9 0.0 0.418400000 3
36 30 31 95 9 0.0 0.418400000 3
29 30 32 33 9 0.0 -1.715400000 2
29 30 32 33 9 0.0 -1.213400000 3
29 30 32 34 9 0.0 -1.882800000 2
29 30 32 34 9 0.0 -1.380700000 3
31 30 32 33 9 0.0 -1.715400000 2
31 30 32 33 9 0.0 -1.213400000 3
31 30 32 34 9 0.0 -1.882800000 2
31 30 32 34 9 0.0 -1.380700000 3
36 30 32 33 9 0.0 -1.715400000 2
36 30 32 33 9 0.0 -1.213400000 3
36 30 32 34 9 0.0 -1.882800000 2
36 30 32 34 9 0.0 -1.380700000 3
30 32 34 35 9 0.0 -2.719600000 1
30 32 34 35 9 0.0 -11.506000000 2
33 32 34 35 9 0.0 -17.614640000 2
33 32 34 35 9 0.0 -3.054320000 3
32 34 35 96 9 0.0 0.627600000 3
32 34 35 97 9 0.0 0.627600000 3
32 34 35 98 9 0.0 0.627600000 3
29 30 36 37 9 0.0 1.882800000 1
29 30 36 99 9 0.0 0.418400000 3
29 30 36 100 9 0.0 0.418400000 3
31 30 36 37 9 0.0 1.882800000 1
31 30 36 99 9 0.0 0.418400000 3
31 30 36 100 9 0.0 0.418400000 3
32 30 36 99 9 0.0 -0.125520000 3
32 30 36 100 9 0.0 -0.125520000 3
30 36 37 38 9 0.0 1.882800000 1
30 36 37 43 9 0.0 1.882800000 1
99 36 37 38 9 0.0 0.418400000 3
99 36 37 39 9 0.0 -0.125520000 3
99 36 37 43 9 0.0 0.418400000 3
100 36 37 38 9 0.0 0.418400000 3
100 36 37 39 9 0.0 -0.125520000 3
100 36 37 43 9 0.0 0.418400000 3
36 37 38 101 9 0.0 0.418400000 3
36 37 38 102 9 0.0 0.418400000 3
36 37 38 103 9 0.0 0.418400000 3
39 37 38 101 9 0.0 -0.125520000 3
39 37 38 102 9 0.0 -0.125520000 3
39 37 38 103 9 0.0 -0.125520000 3
43 37 38 101 9 0.0 0.418400000 3
43 37 38 102 9 0.0 0.418400000 3
43 37 38 103 9 0.0 0.418400000 3
36 37 39 40 9 0.0 -1.715400000 2
36 37 39 40 9 0.0 -1.213400000 3
36 37 39 41 9 0.0 -1.882800000 2
36 37 39 41 9 0.0 -1.380700000 3
38 37 39 40 9 0.0 -1.715400000 2
38 37 39 40 9 0.0 -1.213400000 3
38 37 39 41 9 0.0 -1.882800000 2
38 37 39 41 9 0.0 -1.380700000 3
43 37 39 40 9 0.0 -1.715400000 2
43 37 39 40 9 0.0 -1.213400000 3
43 37 39 41 9 0.0 -1.882800000 2
43 37 39 41 9 0.0 -1.380700000 3
37 39 41 42 9 0.0 -2.719600000 1
37 39 41 42 9 0.0 -11.506000000 2
40 39 41 42 9 0.0 -17.614640000 2
40 39 41 42 9 0.0 -3.054320000 3
39 41 42 104 9 0.0 0.627600000 3
39 41 42 105 9 0.0 0.627600000 3
39 41 42 106 9 0.0 0.627600000 3
36 37 43 44 9 0.0 1.882800000 1
36 37 43 107 9 0.0 0.418400000 3
36 37 43 108 9 0.0 0.418400000 3
38 37 43 44 9 0.0 1.882800000 1
38 37 43 107 9 0.0 0.418400000 3
38 37 43 108 9 0.0 0.418400000 3
39 37 43 107 9 0.0 -0.125520000 3
39 37 43 108 9 0.0 -0.125520000 3
37 43 44 45 9 0.0 1.882800000 1
37 43 44 50 9 0.0 1.882800000 1
107 43 44 45 9 0.0 0.418400000 3
107 43 44 46 9 0.0 -0.125520000 3
107 43 44 50 9 0.0 0.418400000 3
108 43 44 45 9 0.0 0.418400000 3
108 43 44 46 9 0.0 -0.125520000 3
108 43 44 50 9 0.0 0.418400000 3
43 44 45 109 9 0.0 0.418400000 3
43 44 45 110 9 0.0 0.418400000 3
43 44 45 111 9 0.0 0.418400000 3
46 44 45 109 9 0.0 -0.125520000 3
46 44 45 110 9 0.0 -0.125520000 3
46 44 45 111 9 0.0 -0.125520000 3
50 44 45 109 9 0.0 0.418400000 3
50 44 45 110 9 0.0 0.418400000 3
50 44 45 111 9 0.0 0.418400000 3
43 44 46 47 9 0.0 -1.715400000 2
43 44 46 47 9 0.0 -1.213400000 3
43 44 46 48 9 0.0 -1.882800000 2
43 44 46 48 9 0.0 -1.380700000 3
45 44 46 47 9 0.0 -1.715400000 2
45 44 46 47 9 0.0 -1.213400000 3
45 44 46 48 9 0.0 -1.882800000 2
45 44 46 48 9 0.0 -1.380700000 3
50 44 46 47 9 0.0 -1.715400000 2
50 44 46 47 9 0.0 -1.213400000 3
50 44 46 48 9 0.0 -1.882800000 2
50 44 46 48 9 0.0 -1.380700000 3
44 46 48 49 9 0.0 -2.719600000 1
44 46 48 49 9 0.0 -11.506000000 2
47 46 48 49 9 0.0 -17.614640000 2
47 46 48 49 9 0.0 -3.054320000 3
46 48 49 112 9 0.0 0.627600000 3
46 48 49 113 9 0.0 0.627600000 3
46 48 49 114 9 0.0 0.627600000 3
43 44 50 51 9 0.0 1.882800000 1
43 44 50 115 9 0.0 0.418400000 3
43 44 50 116 9 0.0 0.418400000 3
45 44 50 51 9 0.0 1.882800000 1
45 44 50 115 9 0.0 0.418400000 3
45 44 50 116 9 0.0 0.418400000 3
46 44 50 115 9 0.0 -0.125520000 3
46 44 50 116 9 0.0 -0.125520000 3
44 50 51 52 9 0.0 1.882800000 1
44 50 51 57 9 0.0 1.882800000 1
115 50 51 52 9 0.0 0.418400000 3
115 50 51 53 9 0.0 -0.125520000 3
115 50 51 57 9 0.0 0.418400000 3
116 50 51 52 9 0.0 0.418400000 3
116 50 51 53 9 0.0 -0.125520000 3
116 50 51 57 9 0.0 0.418400000 3
50 51 52 117 9 0.0 0.418400000 3
50 51 52 118 9 0.0 0.418400000 3
50 51 52 119 9 0.0 0.418400000 3
53 51 52 117 9 0.0 -0.125520000 3
53 51 52 118 9 0.0 -0.125520000 3
53 51 52 119 9 0.0 -0.125520000 3
57 51 52 117 9 0.0 0.418400000 3
57 51 52 118 9 0.0 0.418400000 3
57 51 52 119 9 0.0 0.418400000 3
50 51 53 54 9 0.0 -1.715400000 2
50 51 53 54 9 0.0 -1.213400000 3
50 51 53 55 9 0.0 -1.882800000 2
50 51 53 55 9 0.0 -1.380700000 3
52 51 53 54 9 0.0 -1.715400000 2
52 51 53 54 9 0.0 -1.213400000 3
52 51 53 55 9 0.0 -1.882800000 2
52 51 53 55 9 0.0 -1.380700000 3
57 51 53 54 9 0.0 -1.715400000 2
57 51 53 54 9 0.0 -1.213400000 3
57 51 53 55 9 0.0 -1.882800000 2
57 51 53 55 9 0.0 -1.380700000 3
51 53 55 56 9 0.0 -2.719600000 1
51 53 55 56 9 0.0 -11.506000000 2
54 53 55 56 9 0.0 -17.614640000 2
54 53 55 56 9 0.0 -3.054320000 3
53 55 56 120 9 0.0 0.627600000 3
53 55 56 121 9 0.0 0.627600000 3
53 55 56 122 9 0.0 0.627600000 3
50 51 57 123 9 0.0 0.418400000 3
50 51 57 124 9 0.0 0.418400000 3
50 51 57 125 9 0.0 0.418400000 3
52 51 57 123 9 0.0 0.418400000 3
52 51 57 124 9 0.0 0.418400000 3
52 51 57 125 9 0.0 0.418400000 3
53 51 57 123 9 0.0 -0.125520000 3
53 51 57 124 9 0.0 -0.125520000 3
53 51 57 125 9 0.0 -0.125520000 3
