HFIP comparator n4
 3225
    1GR      C1    1   0.000   0.000   1.900  0.0000  0.0000  0.0000
    1GR      C2    2   0.142   0.000   1.900  0.0000  0.0000  0.0000
    1GR      C3    3   0.213   0.123   1.900  0.0000  0.0000  0.0000
    1GR      C4    4   0.354   0.123   1.900  0.0000  0.0000  0.0000
    1GR      C5    5   0.000   0.246   1.900  0.0000  0.0000  0.0000
    1GR      C6    6   0.142   0.246   1.900  0.0000  0.0000  0.0000
    1GR      C7    7   0.213   0.368   1.900  0.0000  0.0000  0.0000
    1GR      C8    8   0.354   0.368   1.900  0.0000  0.0000  0.0000
    1GR      C9    9   0.000   0.491   1.900  0.0000  0.0000  0.0000
    1GR     C10   10   0.142   0.491   1.900  0.0000  0.0000  0.0000
    1GR     C11   11   0.213   0.614   1.900  0.0000  0.0000  0.0000
    1GR     C12   12   0.354   0.614   1.900  0.0000  0.0000  0.0000
    1GR     C13   13   0.000   0.737   1.900  0.0000  0.0000  0.0000
    1GR     C14   14   0.142   0.737   1.900  0.0000  0.0000  0.0000
    1GR     C15   15   0.213   0.860   1.900  0.0000  0.0000  0.0000
    1GR     C16   16   0.354   0.860   1.900  0.0000  0.0000  0.0000
    1GR     C17   17   0.000   0.982   1.900  0.0000  0.0000  0.0000
    1GR     C18   18   0.142   0.982   1.900  0.0000  0.0000  0.0000
    1GR     C19   19   0.213   1.105   1.900  0.0000  0.0000  0.0000
    1GR     C20   20   0.354   1.105   1.900  0.0000  0.0000  0.0000
    1GR     C21   21   0.000   1.228   1.900  0.0000  0.0000  0.0000
    1GR     C22   22   0.142   1.228   1.900  0.0000  0.0000  0.0000
    1GR     C23   23   0.213   1.351   1.900  0.0000  0.0000  0.0000
    1GR     C24   24   0.354   1.351   1.900  0.0000  0.0000  0.0000
    1GR     C25   25   0.000   1.474   1.900  0.0000  0.0000  0.0000
    1GR     C26   26   0.142   1.474   1.900  0.0000  0.0000  0.0000
    1GR     C27   27   0.213   1.596   1.900  0.0000  0.0000  0.0000
    1GR     C28   28   0.354   1.596   1.900  0.0000  0.0000  0.0000
    1GR     C29   29   0.000   1.719   1.900  0.0000  0.0000  0.0000
    1GR     C30   30   0.142   1.719   1.900  0.0000  0.0000  0.0000
    1GR     C31   31   0.213   1.842   1.900  0.0000  0.0000  0.0000
    1GR     C32   32   0.354   1.842   1.900  0.0000  0.0000  0.0000
    1GR     C33   33   0.000   1.965   1.900  0.0000  0.0000  0.0000
    1GR     C34   34   0.142   1.965   1.900  0.0000  0.0000  0.0000
    1GR     C35   35   0.213   2.088   1.900  0.0000  0.0000  0.0000
    1GR     C36   36   0.354   2.088   1.900  0.0000  0.0000  0.0000
    1GR     C37   37   0.000   2.210   1.900  0.0000  0.0000  0.0000
    1GR     C38   38   0.142   2.210   1.900  0.0000  0.0000  0.0000
    1GR     C39   39   0.213   2.333   1.900  0.0000  0.0000  0.0000
    1GR     C40   40   0.354   2.333   1.900  0.0000  0.0000  0.0000
    1GR     C41   41   0.000   2.456   1.900  0.0000  0.0000  0.0000
    1GR     C42   42   0.142   2.456   1.900  0.0000  0.0000  0.0000
    1GR     C43   43   0.213   2.579   1.900  0.0000  0.0000  0.0000
    1GR     C44   44   0.354   2.579   1.900  0.0000  0.0000  0.0000
    1GR     C45   45   0.000   2.702   1.900  0.0000  0.0000  0.0000
    1GR     C46   46   0.142   2.702   1.900  0.0000  0.0000  0.0000
    1GR     C47   47   0.213   2.824   1.900  0.0000  0.0000  0.0000
    1GR     C48   48   0.354   2.824   1.900  0.0000  0.0000  0.0000
    1GR     C49   49   0.000   2.947   1.900  0.0000  0.0000  0.0000
    1GR     C50   50   0.142   2.947   1.900  0.0000  0.0000  0.0000
    1GR     C51   51   0.213   3.070   1.900  0.0000  0.0000  0.0000
    1GR     C52   52   0.354   3.070   1.900  0.0000  0.0000  0.0000
    1GR     C53   53   0.000   3.193   1.900  0.0000  0.0000  0.0000
    1GR     C54   54   0.142   3.193   1.900  0.0000  0.0000  0.0000
    1GR     C55   55   0.213   3.316   1.900  0.0000  0.0000  0.0000
    1GR     C56   56   0.354   3.316   1.900  0.0000  0.0000  0.0000
    1GR     C57   57   0.425   0.000   1.900  0.0000  0.0000  0.0000
    1GR     C58   58   0.567   0.000   1.900  0.0000  0.0000  0.0000
    1GR     C59   59   0.638   0.123   1.900  0.0000  0.0000  0.0000
    1GR     C60   60   0.780   0.123   1.900  0.0000  0.0000  0.0000
    1GR     C61   61   0.425   0.246   1.900  0.0000  0.0000  0.0000
    1GR     C62   62   0.567   0.246   1.900  0.0000  0.0000  0.0000
    1GR     C63   63   0.638   0.368   1.900  0.0000  0.0000  0.0000
    1GR     C64   64   0.780   0.368   1.900  0.0000  0.0000  0.0000
    1GR     C65   65   0.425   0.491   1.900  0.0000  0.0000  0.0000
    1GR     C66   66   0.567   0.491   1.900  0.0000  0.0000  0.0000
    1GR     C67   67   0.638   0.614   1.900  0.0000  0.0000  0.0000
    1GR     C68   68   0.780   0.614   1.900  0.0000  0.0000  0.0000
    1GR     C69   69   0.425   0.737   1.900  0.0000  0.0000  0.0000
    1GR     C70   70   0.567   0.737   1.900  0.0000  0.0000  0.0000
    1GR     C71   71   0.638   0.860   1.900  0.0000  0.0000  0.0000
    1GR     C72   72   0.780   0.860   1.900  0.0000  0.0000  0.0000
    1GR     C73   73   0.425   0.982   1.900  0.0000  0.0000  0.0000
    1GR     C74   74   0.567   0.982   1.900  0.0000  0.0000  0.0000
    1GR     C75   75   0.638   1.105   1.900  0.0000  0.0000  0.0000
    1GR     C76   76   0.780   1.105   1.900  0.0000  0.0000  0.0000
    1GR     C77   77   0.425   1.228   1.900  0.0000  0.0000  0.0000
    1GR     C78   78   0.567   1.228   1.900  0.0000  0.0000  0.0000
    1GR     C79   79   0.638   1.351   1.900  0.0000  0.0000  0.0000
    1GR     C80   80   0.780   1.351   1.900  0.0000  0.0000  0.0000
    1GR     C81   81   0.425   1.474   1.900  0.0000  0.0000  0.0000
    1GR     C82   82   0.567   1.474   1.900  0.0000  0.0000  0.0000
    1GR     C83   83   0.638   1.596   1.900  0.0000  0.0000  0.0000
    1GR     C84   84   0.780   1.596   1.900  0.0000  0.0000  0.0000
    1GR     C85   85   0.425   1.719   1.900  0.0000  0.0000  0.0000
    1GR     C86   86   0.567   1.719   1.900  0.0000  0.0000  0.0000
    1GR     C87   87   0.638   1.842   1.900  0.0000  0.0000  0.0000
    1GR     C88   88   0.780   1.842   1.900  0.0000  0.0000  0.0000
    1GR     C89   89   0.425   1.965   1.900  0.0000  0.0000  0.0000
    1GR     C90   90   0.567   1.965   1.900  0.0000  0.0000  0.0000
    1GR     C91   91   0.638   2.088   1.900  0.0000  0.0000  0.0000
    1GR     C92   92   0.780   2.088   1.900  0.0000  0.0000  0.0000
    1GR     C93   93   0.425   2.210   1.900  0.0000  0.0000  0.0000
    1GR     C94   94   0.567   2.210   1.900  0.0000  0.0000  0.0000
    1GR     C95   95   0.638   2.333   1.900  0.0000  0.0000  0.0000
    1GR     C96   96   0.780   2.333   1.900  0.0000  0.0000  0.0000
    1GR     C97   97   0.425   2.456   1.900  0.0000  0.0000  0.0000
    1GR     C98   98   0.567   2.456   1.900  0.0000  0.0000  0.0000
    1GR     C99   99   0.638   2.579   1.900  0.0000  0.0000  0.0000
    1GR    C100  100   0.780   2.579   1.900  0.0000  0.0000  0.0000
    1GR    C101  101   0.425   2.702   1.900  0.0000  0.0000  0.0000
    1GR    C102  102   0.567   2.702   1.900  0.0000  0.0000  0.0000
    1GR    C103  103   0.638   2.824   1.900  0.0000  0.0000  0.0000
    1GR    C104  104   0.780   2.824   1.900  0.0000  0.0000  0.0000
    1GR    C105  105   0.425   2.947   1.900  0.0000  0.0000  0.0000
    1GR    C106  106   0.567   2.947   1.900  0.0000  0.0000  0.0000
    1GR    C107  107   0.638   3.070   1.900  0.0000  0.0000  0.0000
    1GR    C108  108   0.780   3.070   1.900  0.0000  0.0000  0.0000
    1GR    C109  109   0.425   3.193   1.900  0.0000  0.0000  0.0000
    1GR    C110  110   0.567   3.193   1.900  0.0000  0.0000  0.0000
    1GR    C111  111   0.638   3.316   1.900  0.0000  0.0000  0.0000
    1GR    C112  112   0.780   3.316   1.900  0.0000  0.0000  0.0000
    1GR    C113  113   0.851   0.000   1.900  0.0000  0.0000  0.0000
    1GR    C114  114   0.993   0.000   1.900  0.0000  0.0000  0.0000
    1GR    C115  115   1.064   0.123   1.900  0.0000  0.0000  0.0000
    1GR    C116  116   1.205   0.123   1.900  0.0000  0.0000  0.0000
    1GR    C117  117   0.851   0.246   1.900  0.0000  0.0000  0.0000
    1GR    C118  118   0.993   0.246   1.900  0.0000  0.0000  0.0000
    1GR    C119  119   1.064   0.368   1.900  0.0000  0.0000  0.0000
    1GR    C120  120   1.205   0.368   1.900  0.0000  0.0000  0.0000
    1GR    C121  121   0.851   0.491   1.900  0.0000  0.0000  0.0000
    1GR    C122  122   0.993   0.491   1.900  0.0000  0.0000  0.0000
    1GR    C123  123   1.064   0.614   1.900  0.0000  0.0000  0.0000
    1GR    C124  124   1.205   0.614   1.900  0.0000  0.0000  0.0000
    1GR    C125  125   0.851   0.737   1.900  0.0000  0.0000  0.0000
    1GR    C126  126   0.993   0.737   1.900  0.0000  0.0000  0.0000
    1GR    C127  127   1.064   0.860   1.900  0.0000  0.0000  0.0000
    1GR    C128  128   1.205   0.860   1.900  0.0000  0.0000  0.0000
    1GR    C129  129   0.851   0.982   1.900  0.0000  0.0000  0.0000
    1GR    C130  130   0.993   0.982   1.900  0.0000  0.0000  0.0000
    1GR    C131  131   1.064   1.105   1.900  0.0000  0.0000  0.0000
    1GR    C132  132   1.205   1.105   1.900  0.0000  0.0000  0.0000
    1GR    C133  133   0.851   1.228   1.900  0.0000  0.0000  0.0000
    1GR    C134  134   0.993   1.228   1.900  0.0000  0.0000  0.0000
    1GR    C135  135   1.064   1.351   1.900  0.0000  0.0000  0.0000
    1GR    C136  136   1.205   1.351   1.900  0.0000  0.0000  0.0000
    1GR    C137  137   0.851   1.474   1.900  0.0000  0.0000  0.0000
    1GR    C138  138   0.993   1.474   1.900  0.0000  0.0000  0.0000
    1GR    C139  139   1.064   1.596   1.900  0.0000  0.0000  0.0000
    1GR    C140  140   1.205   1.596   1.900  0.0000  0.0000  0.0000
    1GR    C141  141   0.851   1.719   1.900  0.0000  0.0000  0.0000
    1GR    C142  142   0.993   1.719   1.900  0.0000  0.0000  0.0000
    1GR    C143  143   1.064   1.842   1.900  0.0000  0.0000  0.0000
    1GR    C144  144   1.205   1.842   1.900  0.0000  0.0000  0.0000
    1GR    C145  145   0.851   1.965   1.900  0.0000  0.0000  0.0000
    1GR    C146  146   0.993   1.965   1.900  0.0000  0.0000  0.0000
    1GR    C147  147   1.064   2.088   1.900  0.0000  0.0000  0.0000
    1GR    C148  148   1.205   2.088   1.900  0.0000  0.0000  0.0000
    1GR    C149  149   0.851   2.210   1.900  0.0000  0.0000  0.0000
    1GR    C150  150   0.993   2.210   1.900  0.0000  0.0000  0.0000
    1GR    C151  151   1.064   2.333   1.900  0.0000  0.0000  0.0000
    1GR    C152  152   1.205   2.333   1.900  0.0000  0.0000  0.0000
    1GR    C153  153   0.851   2.456   1.900  0.0000  0.0000  0.0000
    1GR    C154  154   0.993   2.456   1.900  0.0000  0.0000  0.0000
    1GR    C155  155   1.064   2.579   1.900  0.0000  0.0000  0.0000
    1GR    C156  156   1.205   2.579   1.900  0.0000  0.0000  0.0000
    1GR    C157  157   0.851   2.702   1.900  0.0000  0.0000  0.0000
    1GR    C158  158   0.993   2.702   1.900  0.0000  0.0000  0.0000
    1GR    C159  159   1.064   2.824   1.900  0.0000  0.0000  0.0000
    1GR    C160  160   1.205   2.824   1.900  0.0000  0.0000  0.0000
    1GR    C161  161   0.851   2.947   1.900  0.0000  0.0000  0.0000
    1GR    C162  162   0.993   2.947   1.900  0.0000  0.0000  0.0000
    1GR    C163  163   1.064   3.070   1.900  0.0000  0.0000  0.0000
    1GR    C164  164   1.205   3.070   1.900  0.0000  0.0000  0.0000
    1GR    C165  165   0.851   3.193   1.900  0.0000  0.0000  0.0000
    1GR    C166  166   0.993   3.193   1.900  0.0000  0.0000  0.0000
    1GR    C167  167   1.064   3.316   1.900  0.0000  0.0000  0.0000
    1GR    C168  168   1.205   3.316   1.900  0.0000  0.0000  0.0000
    1GR    C169  169   1.276   0.000   1.900  0.0000  0.0000  0.0000
    1GR    C170  170   1.418   0.000   1.900  0.0000  0.0000  0.0000
    1GR    C171  171   1.489   0.123   1.900  0.0000  0.0000  0.0000
    1GR    C172  172   1.631   0.123   1.900  0.0000  0.0000  0.0000
    1GR    C173  173   1.276   0.246   1.900  0.0000  0.0000  0.0000
    1GR    C174  174   1.418   0.246   1.900  0.0000  0.0000  0.0000
    1GR    C175  175   1.489   0.368   1.900  0.0000  0.0000  0.0000
    1GR    C176  176   1.631   0.368   1.900  0.0000  0.0000  0.0000
    1GR    C177  177   1.276   0.491   1.900  0.0000  0.0000  0.0000
    1GR    C178  178   1.418   0.491   1.900  0.0000  0.0000  0.0000
    1GR    C179  179   1.489   0.614   1.900  0.0000  0.0000  0.0000
    1GR    C180  180   1.631   0.614   1.900  0.0000  0.0000  0.0000
    1GR    C181  181   1.276   0.737   1.900  0.0000  0.0000  0.0000
    1GR    C182  182   1.418   0.737   1.900  0.0000  0.0000  0.0000
    1GR    C183  183   1.489   0.860   1.900  0.0000  0.0000  0.0000
    1GR    C184  184   1.631   0.860   1.900  0.0000  0.0000  0.0000
    1GR    C185  185   1.276   0.982   1.900  0.0000  0.0000  0.0000
    1GR    C186  186   1.418   0.982   1.900  0.0000  0.0000  0.0000
    1GR    C187  187   1.489   1.105   1.900  0.0000  0.0000  0.0000
    1GR    C188  188   1.631   1.105   1.900  0.0000  0.0000  0.0000
    1GR    C189  189   1.276   1.228   1.900  0.0000  0.0000  0.0000
    1GR    C190  190   1.418   1.228   1.900  0.0000  0.0000  0.0000
    1GR    C191  191   1.489   1.351   1.900  0.0000  0.0000  0.0000
    1GR    C192  192   1.631   1.351   1.900  0.0000  0.0000  0.0000
    1GR    C193  193   1.276   1.474   1.900  0.0000  0.0000  0.0000
    1GR    C194  194   1.418   1.474   1.900  0.0000  0.0000  0.0000
    1GR    C195  195   1.489   1.596   1.900  0.0000  0.0000  0.0000
    1GR    C196  196   1.631   1.596   1.900  0.0000  0.0000  0.0000
    1GR    C197  197   1.276   1.719   1.900  0.0000  0.0000  0.0000
    1GR    C198  198   1.418   1.719   1.900  0.0000  0.0000  0.0000
    1GR    C199  199   1.489   1.842   1.900  0.0000  0.0000  0.0000
    1GR    C200  200   1.631   1.842   1.900  0.0000  0.0000  0.0000
    1GR    C201  201   1.276   1.965   1.900  0.0000  0.0000  0.0000
    1GR    C202  202   1.418   1.965   1.900  0.0000  0.0000  0.0000
    1GR    C203  203   1.489   2.088   1.900  0.0000  0.0000  0.0000
    1GR    C204  204   1.631   2.088   1.900  0.0000  0.0000  0.0000
    1GR    C205  205   1.276   2.210   1.900  0.0000  0.0000  0.0000
    1GR    C206  206   1.418   2.210   1.900  0.0000  0.0000  0.0000
    1GR    C207  207   1.489   2.333   1.900  0.0000  0.0000  0.0000
    1GR    C208  208   1.631   2.333   1.900  0.0000  0.0000  0.0000
    1GR    C209  209   1.276   2.456   1.900  0.0000  0.0000  0.0000
    1GR    C210  210   1.418   2.456   1.900  0.0000  0.0000  0.0000
    1GR    C211  211   1.489   2.579   1.900  0.0000  0.0000  0.0000
    1GR    C212  212   1.631   2.579   1.900  0.0000  0.0000  0.0000
    1GR    C213  213   1.276   2.702   1.900  0.0000  0.0000  0.0000
    1GR    C214  214   1.418   2.702   1.900  0.0000  0.0000  0.0000
    1GR    C215  215   1.489   2.824   1.900  0.0000  0.0000  0.0000
    1GR    C216  216   1.631   2.824   1.900  0.0000  0.0000  0.0000
    1GR    C217  217   1.276   2.947   1.900  0.0000  0.0000  0.0000
    1GR    C218  218   1.418   2.947   1.900  0.0000  0.0000  0.0000
    1GR    C219  219   1.489   3.070   1.900  0.0000  0.0000  0.0000
    1GR    C220  220   1.631   3.070   1.900  0.0000  0.0000  0.0000
    1GR    C221  221   1.276   3.193   1.900  0.0000  0.0000  0.0000
    1GR    C222  222   1.418   3.193   1.900  0.0000  0.0000  0.0000
    1GR    C223  223   1.489   3.316   1.900  0.0000  0.0000  0.0000
    1GR    C224  224   1.631   3.316   1.900  0.0000  0.0000  0.0000
    1GR    C225  225   1.702   0.000   1.900  0.0000  0.0000  0.0000
    1GR    C226  226   1.843   3.438   1.900  0.0000  0.0000  0.0000
    1GR    C227  227   1.914   0.123   1.900  0.0000  0.0000  0.0000
    1GR    C228  228   2.056   0.123   1.900  0.0000  0.0000  0.0000
    1GR    C229  229   1.702   0.246   1.900  0.0000  0.0000  0.0000
    1GR    C230  230   1.843   0.246   1.900  0.0000  0.0000  0.0000
    1GR    C231  231   1.914   0.368   1.900  0.0000  0.0000  0.0000
    1GR    C232  232   2.056   0.368   1.900  0.0000  0.0000  0.0000
    1GR    C233  233   1.702   0.491   1.900  0.0000  0.0000  0.0000
    1GR    C234  234   1.843   0.491   1.900  0.0000  0.0000  0.0000
    1GR    C235  235   1.914   0.614   1.900  0.0000  0.0000  0.0000
    1GR    C236  236   2.056   0.614   1.900  0.0000  0.0000  0.0000
    1GR    C237  237   1.702   0.737   1.900  0.0000  0.0000  0.0000
    1GR    C238  238   1.843   0.737   1.900  0.0000  0.0000  0.0000
    1GR    C239  239   1.914   0.860   1.900  0.0000  0.0000  0.0000
    1GR    C240  240   2.056   0.860   1.900  0.0000  0.0000  0.0000
    1GR    C241  241   1.702   0.982   1.900  0.0000  0.0000  0.0000
    1GR    C242  242   1.843   0.982   1.900  0.0000  0.0000  0.0000
    1GR    C243  243   1.914   1.105   1.900  0.0000  0.0000  0.0000
    1GR    C244  244   2.056   1.105   1.900  0.0000  0.0000  0.0000
    1GR    C245  245   1.702   1.228   1.900  0.0000  0.0000  0.0000
    1GR    C246  246   1.843   1.228   1.900  0.0000  0.0000  0.0000
    1GR    C247  247   1.914   1.351   1.900  0.0000  0.0000  0.0000
    1GR    C248  248   2.056   1.351   1.900  0.0000  0.0000  0.0000
    1GR    C249  249   1.702   1.474   1.900  0.0000  0.0000  0.0000
    1GR    C250  250   1.843   1.474   1.900  0.0000  0.0000  0.0000
    1GR    C251  251   1.914   1.596   1.900  0.0000  0.0000  0.0000
    1GR    C252  252   2.056   1.596   1.900  0.0000  0.0000  0.0000
    1GR    C253  253   1.702   1.719   1.900  0.0000  0.0000  0.0000
    1GR    C254  254   1.843   1.719   1.900  0.0000  0.0000  0.0000
    1GR    C255  255   1.914   1.842   1.900  0.0000  0.0000  0.0000
    1GR    C256  256   2.056   1.842   1.900  0.0000  0.0000  0.0000
    1GR    C257  257   1.702   1.965   1.900  0.0000  0.0000  0.0000
    1GR    C258  258   1.843   1.965   1.900  0.0000  0.0000  0.0000
    1GR    C259  259   1.914   2.088   1.900  0.0000  0.0000  0.0000
    1GR    C260  260   2.056   2.088   1.900  0.0000  0.0000  0.0000
    1GR    C261  261   1.702   2.210   1.900  0.0000  0.0000  0.0000
    1GR    C262  262   1.843   2.210   1.900  0.0000  0.0000  0.0000
    1GR    C263  263   1.914   2.333   1.900  0.0000  0.0000  0.0000
    1GR    C264  264   2.056   2.333   1.900  0.0000  0.0000  0.0000
    1GR    C265  265   1.702   2.456   1.900  0.0000  0.0000  0.0000
    1GR    C266  266   1.843   2.456   1.900  0.0000  0.0000  0.0000
    1GR    C267  267   1.914   2.579   1.900  0.0000  0.0000  0.0000
    1GR    C268  268   2.056   2.579   1.900  0.0000  0.0000  0.0000
    1GR    C269  269   1.702   2.702   1.900  0.0000  0.0000  0.0000
    1GR    C270  270   1.843   2.702   1.900  0.0000  0.0000  0.0000
    1GR    C271  271   1.914   2.824   1.900  0.0000  0.0000  0.0000
    1GR    C272  272   2.056   2.824   1.900  0.0000  0.0000  0.0000
    1GR    C273  273   1.702   2.947   1.900  0.0000  0.0000  0.0000
    1GR    C274  274   1.843   2.947   1.900  0.0000  0.0000  0.0000
    1GR    C275  275   1.914   3.070   1.900  0.0000  0.0000  0.0000
    1GR    C276  276   2.056   3.070   1.900  0.0000  0.0000  0.0000
    1GR    C277  277   1.702   3.193   1.900  0.0000  0.0000  0.0000
    1GR    C278  278   1.843   3.193   1.900  0.0000  0.0000  0.0000
    1GR    C279  279   1.914   3.316   1.900  0.0000  0.0000  0.0000
    1GR    C280  280   2.056   3.316   1.900  0.0000  0.0000  0.0000
    1GR    C281  281   2.127   0.000   1.900  0.0000  0.0000  0.0000
    1GR    C282  282   2.269   0.000   1.900  0.0000  0.0000  0.0000
    1GR    C283  283   2.340   0.123   1.900  0.0000  0.0000  0.0000
    1GR    C284  284   2.481   0.123   1.900  0.0000  0.0000  0.0000
    1GR    C285  285   2.127   0.246   1.900  0.0000  0.0000  0.0000
    1GR    C286  286   2.269   0.246   1.900  0.0000  0.0000  0.0000
    1GR    C287  287   2.340   0.368   1.900  0.0000  0.0000  0.0000
    1GR    C288  288   2.481   0.368   1.900  0.0000  0.0000  0.0000
    1GR    C289  289   2.127   0.491   1.900  0.0000  0.0000  0.0000
    1GR    C290  290   2.269   0.491   1.900  0.0000  0.0000  0.0000
    1GR    C291  291   2.340   0.614   1.900  0.0000  0.0000  0.0000
    1GR    C292  292   2.481   0.614   1.900  0.0000  0.0000  0.0000
    1GR    C293  293   2.127   0.737   1.900  0.0000  0.0000  0.0000
    1GR    C294  294   2.269   0.737   1.900  0.0000  0.0000  0.0000
    1GR    C295  295   2.340   0.860   1.900  0.0000  0.0000  0.0000
    1GR    C296  296   2.481   0.860   1.900  0.0000  0.0000  0.0000
    1GR    C297  297   2.127   0.982   1.900  0.0000  0.0000  0.0000
    1GR    C298  298   2.269   0.982   1.900  0.0000  0.0000  0.0000
    1GR    C299  299   2.340   1.105   1.900  0.0000  0.0000  0.0000
    1GR    C300  300   2.481   1.105   1.900  0.0000  0.0000  0.0000
    1GR    C301  301   2.127   1.228   1.900  0.0000  0.0000  0.0000
    1GR    C302  302   2.269   1.228   1.900  0.0000  0.0000  0.0000
    1GR    C303  303   2.340   1.351   1.900  0.0000  0.0000  0.0000
    1GR    C304  304   2.481   1.351   1.900  0.0000  0.0000  0.0000
    1GR    C305  305   2.127   1.474   1.900  0.0000  0.0000  0.0000
    1GR    C306  306   2.269   1.474   1.900  0.0000  0.0000  0.0000
    1GR    C307  307   2.340   1.596   1.900  0.0000  0.0000  0.0000
    1GR    C308  308   2.481   1.596   1.900  0.0000  0.0000  0.0000
    1GR    C309  309   2.127   1.719   1.900  0.0000  0.0000  0.0000
    1GR    C310  310   2.269   1.719   1.900  0.0000  0.0000  0.0000
    1GR    C311  311   2.340   1.842   1.900  0.0000  0.0000  0.0000
    1GR    C312  312   2.481   1.842   1.900  0.0000  0.0000  0.0000
    1GR    C313  313   2.127   1.965   1.900  0.0000  0.0000  0.0000
    1GR    C314  314   2.269   1.965   1.900  0.0000  0.0000  0.0000
    1GR    C315  315   2.340   2.088   1.900  0.0000  0.0000  0.0000
    1GR    C316  316   2.481   2.088   1.900  0.0000  0.0000  0.0000
    1GR    C317  317   2.127   2.210   1.900  0.0000  0.0000  0.0000
    1GR    C318  318   2.269   2.210   1.900  0.0000  0.0000  0.0000
    1GR    C319  319   2.340   2.333   1.900  0.0000  0.0000  0.0000
    1GR    C320  320   2.481   2.333   1.900  0.0000  0.0000  0.0000
    1GR    C321  321   2.127   2.456   1.900  0.0000  0.0000  0.0000
    1GR    C322  322   2.269   2.456   1.900  0.0000  0.0000  0.0000
    1GR    C323  323   2.340   2.579   1.900  0.0000  0.0000  0.0000
    1GR    C324  324   2.481   2.579   1.900  0.0000  0.0000  0.0000
    1GR    C325  325   2.127   2.702   1.900  0.0000  0.0000  0.0000
    1GR    C326  326   2.269   2.702   1.900  0.0000  0.0000  0.0000
    1GR    C327  327   2.340   2.824   1.900  0.0000  0.0000  0.0000
    1GR    C328  328   2.481   2.824   1.900  0.0000  0.0000  0.0000
    1GR    C329  329   2.127   2.947   1.900  0.0000  0.0000  0.0000
    1GR    C330  330   2.269   2.947   1.900  0.0000  0.0000  0.0000
    1GR    C331  331   2.340   3.070   1.900  0.0000  0.0000  0.0000
    1GR    C332  332   2.481   3.070   1.900  0.0000  0.0000  0.0000
    1GR    C333  333   2.127   3.193   1.900  0.0000  0.0000  0.0000
    1GR    C334  334   2.269   3.193   1.900  0.0000  0.0000  0.0000
    1GR    C335  335   2.340   3.316   1.900  0.0000  0.0000  0.0000
    1GR    C336  336   2.481   3.316   1.900  0.0000  0.0000  0.0000
    1GR    C337  337   2.552   0.000   1.900  0.0000  0.0000  0.0000
    1GR    C338  338   2.694   0.000   1.900  0.0000  0.0000  0.0000
    1GR    C339  339   2.765   0.123   1.900  0.0000  0.0000  0.0000
    1GR    C340  340   2.907   0.123   1.900  0.0000  0.0000  0.0000
    1GR    C341  341   2.552   0.246   1.900  0.0000  0.0000  0.0000
    1GR    C342  342   2.694   0.246   1.900  0.0000  0.0000  0.0000
    1GR    C343  343   2.765   0.368   1.900  0.0000  0.0000  0.0000
    1GR    C344  344   2.907   0.368   1.900  0.0000  0.0000  0.0000
    1GR    C345  345   2.552   0.491   1.900  0.0000  0.0000  0.0000
    1GR    C346  346   2.694   0.491   1.900  0.0000  0.0000  0.0000
    1GR    C347  347   2.765   0.614   1.900  0.0000  0.0000  0.0000
    1GR    C348  348   2.907   0.614   1.900  0.0000  0.0000  0.0000
    1GR    C349  349   2.552   0.737   1.900  0.0000  0.0000  0.0000
    1GR    C350  350   2.694   0.737   1.900  0.0000  0.0000  0.0000
    1GR    C351  351   2.765   0.860   1.900  0.0000  0.0000  0.0000
    1GR    C352  352   2.907   0.860   1.900  0.0000  0.0000  0.0000
    1GR    C353  353   2.552   0.982   1.900  0.0000  0.0000  0.0000
    1GR    C354  354   2.694   0.982   1.900  0.0000  0.0000  0.0000
    1GR    C355  355   2.765   1.105   1.900  0.0000  0.0000  0.0000
    1GR    C356  356   2.907   1.105   1.900  0.0000  0.0000  0.0000
    1GR    C357  357   2.552   1.228   1.900  0.0000  0.0000  0.0000
    1GR    C358  358   2.694   1.228   1.900  0.0000  0.0000  0.0000
    1GR    C359  359   2.765   1.351   1.900  0.0000  0.0000  0.0000
    1GR    C360  360   2.907   1.351   1.900  0.0000  0.0000  0.0000
    1GR    C361  361   2.552   1.474   1.900  0.0000  0.0000  0.0000
    1GR    C362  362   2.694   1.474   1.900  0.0000  0.0000  0.0000
    1GR    C363  363   2.765   1.596   1.900  0.0000  0.0000  0.0000
    1GR    C364  364   2.907   1.596   1.900  0.0000  0.0000  0.0000
    1GR    C365  365   2.552   1.719   1.900  0.0000  0.0000  0.0000
    1GR    C366  366   2.694   1.719   1.900  0.0000  0.0000  0.0000
    1GR    C367  367   2.765   1.842   1.900  0.0000  0.0000  0.0000
    1GR    C368  368   2.907   1.842   1.900  0.0000  0.0000  0.0000
    1GR    C369  369   2.552   1.965   1.900  0.0000  0.0000  0.0000
    1GR    C370  370   2.694   1.965   1.900  0.0000  0.0000  0.0000
    1GR    C371  371   2.765   2.088   1.900  0.0000  0.0000  0.0000
    1GR    C372  372   2.907   2.088   1.900  0.0000  0.0000  0.0000
    1GR    C373  373   2.552   2.210   1.900  0.0000  0.0000  0.0000
    1GR    C374  374   2.694   2.210   1.900  0.0000  0.0000  0.0000
    1GR    C375  375   2.765   2.333   1.900  0.0000  0.0000  0.0000
    1GR    C376  376   2.907   2.333   1.900  0.0000  0.0000  0.0000
    1GR    C377  377   2.552   2.456   1.900  0.0000  0.0000  0.0000
    1GR    C378  378   2.694   2.456   1.900  0.0000  0.0000  0.0000
    1GR    C379  379   2.765   2.579   1.900  0.0000  0.0000  0.0000
    1GR    C380  380   2.907   2.579   1.900  0.0000  0.0000  0.0000
    1GR    C381  381   2.552   2.702   1.900  0.0000  0.0000  0.0000
    1GR    C382  382   2.694   2.702   1.900  0.0000  0.0000  0.0000
    1GR    C383  383   2.765   2.824   1.900  0.0000  0.0000  0.0000
    1GR    C384  384   2.907   2.824   1.900  0.0000  0.0000  0.0000
    1GR    C385  385   2.552   2.947   1.900  0.0000  0.0000  0.0000
    1GR    C386  386   2.694   2.947   1.900  0.0000  0.0000  0.0000
    1GR    C387  387   2.765   3.070   1.900  0.0000  0.0000  0.0000
    1GR    C388  388   2.907   3.070   1.900  0.0000  0.0000  0.0000
    1GR    C389  389   2.552   3.193   1.900  0.0000  0.0000  0.0000
    1GR    C390  390   2.694   3.193   1.900  0.0000  0.0000  0.0000
    1GR    C391  391   2.765   3.316   1.900  0.0000  0.0000  0.0000
    1GR    C392  392   2.907   3.316   1.900  0.0000  0.0000  0.0000
    1GR    C393  393   2.978   0.000   1.900  0.0000  0.0000  0.0000
    1GR    C394  394   3.120   0.000   1.900  0.0000  0.0000  0.0000
    1GR    C395  395   3.191   0.123   1.900  0.0000  0.0000  0.0000
    1GR    C396  396   3.332   0.123   1.900  0.0000  0.0000  0.0000
    1GR    C397  397   2.978   0.246   1.900  0.0000  0.0000  0.0000
    1GR    C398  398   3.120   0.246   1.900  0.0000  0.0000  0.0000
    1GR    C399  399   3.191   0.368   1.900  0.0000  0.0000  0.0000
    1GR    C400  400   3.332   0.368   1.900  0.0000  0.0000  0.0000
    1GR    C401  401   2.978   0.491   1.900  0.0000  0.0000  0.0000
    1GR    C402  402   3.120   0.491   1.900  0.0000  0.0000  0.0000
    1GR    C403  403   3.191   0.614   1.900  0.0000  0.0000  0.0000
    1GR    C404  404   3.332   0.614   1.900  0.0000  0.0000  0.0000
    1GR    C405  405   2.978   0.737   1.900  0.0000  0.0000  0.0000
    1GR    C406  406   3.120   0.737   1.900  0.0000  0.0000  0.0000
    1GR    C407  407   3.191   0.860   1.900  0.0000  0.0000  0.0000
    1GR    C408  408   3.332   0.860   1.900  0.0000  0.0000  0.0000
    1GR    C409  409   2.978   0.982   1.900  0.0000  0.0000  0.0000
    1GR    C410  410   3.120   0.982   1.900  0.0000  0.0000  0.0000
    1GR    C411  411   3.191   1.105   1.900  0.0000  0.0000  0.0000
    1GR    C412  412   3.332   1.105   1.900  0.0000  0.0000  0.0000
    1GR    C413  413   2.978   1.228   1.900  0.0000  0.0000  0.0000
    1GR    C414  414   3.120   1.228   1.900  0.0000  0.0000  0.0000
    1GR    C415  415   3.191   1.351   1.900  0.0000  0.0000  0.0000
    1GR    C416  416   3.332   1.351   1.900  0.0000  0.0000  0.0000
    1GR    C417  417   2.978   1.474   1.900  0.0000  0.0000  0.0000
    1GR    C418  418   3.120   1.474   1.900  0.0000  0.0000  0.0000
    1GR    C419  419   3.191   1.596   1.900  0.0000  0.0000  0.0000
    1GR    C420  420   3.332   1.596   1.900  0.0000  0.0000  0.0000
    1GR    C421  421   2.978   1.719   1.900  0.0000  0.0000  0.0000
    1GR    C422  422   3.120   1.719   1.900  0.0000  0.0000  0.0000
    1GR    C423  423   3.191   1.842   1.900  0.0000  0.0000  0.0000
    1GR    C424  424   3.332   1.842   1.900  0.0000  0.0000  0.0000
    1GR    C425  425   2.978   1.965   1.900  0.0000  0.0000  0.0000
    1GR    C426  426   3.120   1.965   1.900  0.0000  0.0000  0.0000
    1GR    C427  427   3.191   2.088   1.900  0.0000  0.0000  0.0000
    1GR    C428  428   3.332   2.088   1.900  0.0000  0.0000  0.0000
    1GR    C429  429   2.978   2.210   1.900  0.0000  0.0000  0.0000
    1GR    C430  430   3.120   2.210   1.900  0.0000  0.0000  0.0000
    1GR    C431  431   3.191   2.333   1.900  0.0000  0.0000  0.0000
    1GR    C432  432   3.332   2.333   1.900  0.0000  0.0000  0.0000
    1GR    C433  433   2.978   2.456   1.900  0.0000  0.0000  0.0000
    1GR    C434  434   3.120   2.456   1.900  0.0000  0.0000  0.0000
    1GR    C435  435   3.191   2.579   1.900  0.0000  0.0000  0.0000
    1GR    C436  436   3.332   2.579   1.900  0.0000  0.0000  0.0000
    1GR    C437  437   2.978   2.702   1.900  0.0000  0.0000  0.0000
    1GR    C438  438   3.120   2.702   1.900  0.0000  0.0000  0.0000
    1GR    C439  439   3.191   2.824   1.900  0.0000  0.0000  0.0000
    1GR    C440  440   3.332   2.824   1.900  0.0000  0.0000  0.0000
    1GR    C441  441   2.978   2.947   1.900  0.0000  0.0000  0.0000
    1GR    C442  442   3.120   2.947   1.900  0.0000  0.0000  0.0000
    1GR    C443  443   3.191   3.070   1.900  0.0000  0.0000  0.0000
    1GR    C444  444   3.332   3.070   1.900  0.0000  0.0000  0.0000
    1GR    C445  445   2.978   3.193   1.900  0.0000  0.0000  0.0000
    1GR    C446  446   3.120   3.193   1.900  0.0000  0.0000  0.0000
    1GR    C447  447   3.191   3.316   1.900  0.0000  0.0000  0.0000
    1GR    C448  448   3.332   3.316   1.900  0.0000  0.0000  0.0000
    2PMMA   CX1  449   2.720   0.163   2.383  0.5954  0.3147 -0.5981
    2PMMA   CA2  450   2.574   0.104   2.402 -0.4835  0.3007 -0.1890
    2PMMA   CX3  451   2.511   0.114   2.262 -0.3329 -0.2417  0.1480
    2PMMA    C4  452   2.586  -0.046   2.427 -0.0870 -0.2730  0.0704
    2PMMA    O5  453   2.541  -0.105   2.521 -0.1044  0.5650 -0.1013
    2PMMA   OS6  454   2.667  -0.110   2.338  0.6064 -0.2385 -0.3779
    2PMMA   CE7  455   2.702  -0.241   2.353  0.5233  0.4059 -0.4852
    2PMMA   CX8  456   2.499   0.177   2.521  0.2672 -0.0703  0.8320
    2PMMA   CA9  457   2.341   0.187   2.538 -0.3053 -0.1733  0.7284
    2PMMA  CX10  458   2.293   0.280   2.428 -0.0006  0.0170  0.1190
    2PMMA   C11  459   2.325   0.261   2.675 -0.4860  0.6930 -0.0662
    2PMMA   O12  460   2.311   0.381   2.696 -0.4491 -0.3329 -0.2385
    2PMMA  OS13  461   2.377   0.183   2.771 -0.1893  0.1906  0.2084
    2PMMA  CE14  462   2.412   0.238   2.898  0.0380  0.1136  0.1985
    2PMMA  CX15  463   2.279   0.035   2.536 -0.2169  0.1531 -0.1690
    2PMMA  CA16  464   2.118   0.026   2.546  1.5108 -1.1882  0.2420
    2PMMA  CX17  465   2.086  -0.122   2.577 -0.1117  0.1469  0.3593
    2PMMA   C18  466   2.074   0.108   2.675  0.7477  0.5992  0.0660
    2PMMA   O19  467   2.080   0.064   2.788  0.1729 -0.3169  0.2270
    2PMMA  OS20  468   2.035   0.235   2.640  0.0773  0.1254  0.1892
    2PMMA  CE21  469   1.982   0.318   2.742 -0.3708 -0.2425 -0.3250
    2PMMA  CX22  470   2.048   0.068   2.415  0.2793  0.2067 -0.1924
    2PMMA  CA23  471   1.906   0.024   2.366  0.6031  0.3777  0.5050
    2PMMA  CX24  472   1.802   0.070   2.471  0.0116  0.3345 -0.1260
    2PMMA   C25  473   1.899  -0.123   2.324 -0.2288  0.0533 -0.2312
    2PMMA   O26  474   1.997  -0.189   2.289  0.0975 -0.0188  0.6192
    2PMMA  OS27  475   1.776  -0.177   2.343 -0.4230  0.0784  0.1910
    2PMMA  CE28  476   1.753  -0.313   2.310 -0.2232  0.2602  1.0869
    2PMMA  CX29  477   1.875   0.103   2.238  0.2304 -0.3456 -0.2238
    2PMMA  HC30  478   2.715   0.272   2.389 -0.9554  0.2951 -1.2434
    2PMMA  HC31  479   2.796   0.134   2.456 -1.0285 -0.3863  0.8450
    2PMMA  HC32  480   2.763   0.150   2.283 -1.1671  2.1752 -1.6366
    2PMMA  HC33  481   2.408   0.078   2.267 -1.4044  2.6164 -0.1301
    2PMMA  HC34  482   2.562   0.053   2.186  0.2756  0.8635 -0.3414
    2PMMA  HC35  483   2.506   0.219   2.230  2.3490 -0.3680 -0.8116
    2PMMA  H136  484   2.781  -0.251   2.427 -0.5872 -1.1499  0.5091
    2PMMA  H137  485   2.747  -0.280   2.261  1.0344  0.8623 -0.4264
    2PMMA  H138  486   2.614  -0.303   2.373  0.0680  0.4051 -2.3302
    2PMMA  HC39  487   2.535   0.121   2.608  2.7304 -0.1922 -0.2160
    2PMMA  HC40  488   2.535   0.280   2.529 -0.2897  0.2873 -1.0830
    2PMMA  HC41  489   2.201   0.334   2.455  0.5296  1.7535 -1.5254
    2PMMA  HC42  490   2.360   0.359   2.394  0.7113 -0.9526 -0.7296
    2PMMA  HC43  491   2.272   0.222   2.338 -2.1967 -0.0096  0.6091
    2PMMA  H144  492   2.476   0.168   2.953  1.9223  1.1352 -0.6490
    2PMMA  H145  493   2.330   0.262   2.967  0.8532  3.1151  0.1995
    2PMMA  H146  494   2.459   0.337   2.895 -1.8438  1.0807  1.5220
    2PMMA  HC47  495   2.312  -0.003   2.439 -0.4237  0.3075 -0.2981
    2PMMA  HC48  496   2.325  -0.022   2.618 -1.6776 -0.7974  0.0077
    2PMMA  HC49  497   2.105  -0.186   2.490 -1.4715  1.1694 -0.6977
    2PMMA  HC50  498   1.980  -0.148   2.583  0.2253 -1.3394  0.1496
    2PMMA  HC51  499   2.128  -0.163   2.669 -2.4382  1.2795  1.9681
    2PMMA  H152  500   1.955   0.418   2.706  0.7672  0.7733  1.5866
    2PMMA  H153  501   2.061   0.325   2.817 -2.5172  0.7342  1.9155
    2PMMA  H154  502   1.894   0.270   2.786 -0.1961  0.9076  1.3158
    2PMMA  HC55  503   2.043   0.178   2.416  0.5039  0.2358 -1.3246
    2PMMA  HC56  504   2.113   0.043   2.331  0.7312  1.4594 -0.2167
    2PMMA  HC57  505   1.806   0.013   2.565 -0.8993  0.1345 -0.2063
    2PMMA  HC58  506   1.809   0.177   2.494  0.0565  0.2127  0.4481
    2PMMA  HC59  507   1.698   0.051   2.443  0.1226 -0.1715 -0.2122
    2PMMA  H160  508   1.649  -0.345   2.320 -0.7024  1.6073  0.4570
    2PMMA  H161  509   1.814  -0.380   2.371 -1.3667 -1.4011  0.4185
    2PMMA  H162  510   1.783  -0.332   2.207  0.5069 -2.3553  1.7512
    2PMMA  HC63  511   1.944   0.075   2.157  0.8704  1.0814 -0.1906
    2PMMA  HC64  512   1.774   0.082   2.200 -0.1422  0.8066  0.1130
    2PMMA  HC65  513   1.877   0.211   2.253  1.6669 -0.4160  0.2013
    3HFI     O1  514   2.675   1.476   0.756  0.2825  0.0644 -0.1824
    3HFI     C1  515   2.813   1.475   0.803 -0.5416 -0.0137  0.6201
    3HFI     C2  516   2.848   1.588   0.901 -0.5128  0.7241 -0.2973
    3HFI     F1  517   2.774   1.578   1.013  0.7424  0.6490 -0.4427
    3HFI     F2  518   2.838   1.708   0.842 -0.2128 -0.1189 -0.4921
    3HFI     F3  519   2.973   1.565   0.947  0.0747 -1.0043  0.0210
    3HFI     C3  520   2.911   1.464   0.680  0.0818  0.2782 -0.2391
    3HFI     F4  521   2.917   1.338   0.637 -0.1412  0.0939  0.3716
    3HFI     F5  522   3.041   1.502   0.697 -0.3613  0.4170  0.4433
    3HFI     F6  523   2.862   1.539   0.575  0.2984  0.3318 -0.3971
    3HFI     H1  524   2.674   1.508   0.665  2.2679  0.6647 -0.0094
    3HFI     H2  525   2.831   1.379   0.854  1.5024 -1.2143 -2.2173
    4HFI     O1  526   1.326   1.395   0.447 -0.2635  0.1647 -0.2299
    4HFI     C1  527   1.293   1.263   0.507 -1.0346  0.7874 -1.0986
    4HFI     C2  528   1.214   1.270   0.641  0.0359  0.0301  0.1146
    4HFI     F1  529   1.117   1.361   0.636 -0.3828  0.2540 -0.2488
    4HFI     F2  530   1.288   1.300   0.750 -0.2729 -0.1361 -0.0309
    4HFI     F3  531   1.150   1.152   0.667 -0.1488 -0.6477 -0.0856
    4HFI     C3  532   1.413   1.165   0.519  0.5926  0.1893 -0.6914
    4HFI     F4  533   1.376   1.041   0.542  0.1879 -0.3816  0.0052
    4HFI     F5  534   1.507   1.200   0.615  0.1529  0.5525  0.2890
    4HFI     F6  535   1.479   1.161   0.405 -0.5050 -0.1240 -0.4970
    4HFI     H1  536   1.260   1.462   0.473  0.3311 -0.2934  2.6860
    4HFI     H2  537   1.233   1.213   0.430 -0.2043 -3.2549  0.7350
    5HFI     O1  538   2.274   0.156   3.689 -0.1871 -0.1219  0.4056
    5HFI     C1  539   2.301   0.273   3.776  0.1255 -0.4249 -0.4129
    5HFI     C2  540   2.165   0.342   3.826 -0.6493  0.5810  1.5071
    5HFI     F1  541   2.088   0.250   3.885 -0.3461  0.9987  0.6347
    5HFI     F2  542   2.089   0.395   3.726  0.3316  0.5881 -0.2763
    5HFI     F3  543   2.188   0.439   3.927 -0.4377 -0.2128 -0.0190
    5HFI     C3  544   2.396   0.371   3.710  0.0478  0.0542  0.6948
    5HFI     F4  545   2.351   0.407   3.581 -0.7195 -0.0150  0.0258
    5HFI     F5  546   2.503   0.297   3.690  0.0397  0.4795 -0.7422
    5HFI     F6  547   2.438   0.477   3.782  0.1838 -0.2872 -0.0056
    5HFI     H1  548   2.180   0.158   3.665 -0.7388  1.1101  2.5679
    5HFI     H2  549   2.350   0.231   3.865 -0.6225  0.5172  0.4499
    6HFI     O1  550   2.750   1.051   1.300 -0.7351  0.1231 -0.3650
    6HFI     C1  551   2.666   1.046   1.418  0.6047  0.6055  0.5689
    6HFI     C2  552   2.671   1.183   1.490  0.2748 -0.8199 -0.5807
    6HFI     F1  553   2.792   1.202   1.550 -0.4520 -0.2077  0.0207
    6HFI     F2  554   2.580   1.192   1.589 -0.3487  0.4877 -0.5824
    6HFI     F3  555   2.643   1.290   1.415  0.3413 -0.0646  0.5381
    6HFI     C3  556   2.703   0.933   1.523  0.5122 -0.7517  0.2997
    6HFI     F4  557   2.702   0.812   1.462  0.9293  0.1571  0.2877
    6HFI     F5  558   2.607   0.927   1.614 -0.0310  0.2787 -0.1523
    6HFI     F6  559   2.822   0.947   1.586  0.2815 -0.8684  0.1852
    6HFI     H1  560   2.843   1.045   1.328  0.0195  1.4104 -2.4439
    6HFI     H2  561   2.563   1.031   1.383  1.2686  3.0435 -2.7268
    7HFI     O1  562   1.494   0.911   0.759 -0.3063  0.3210  0.4488
    7HFI     C1  563   1.461   0.857   0.892 -0.1245  0.5292 -0.6972
    7HFI     C2  564   1.505   0.948   1.008 -0.8377  0.6565 -0.1153
    7HFI     F1  565   1.576   1.051   0.961 -0.1148 -0.4700 -0.1165
    7HFI     F2  566   1.576   0.883   1.105  0.2202  0.1877  0.1772
    7HFI     F3  567   1.395   0.996   1.068 -0.2019 -0.7758 -0.1311
    7HFI     C3  568   1.505   0.710   0.908  0.4067  0.2134  0.0373
    7HFI     F4  569   1.458   0.631   0.804  0.0290  0.0953  0.0618
    7HFI     F5  570   1.463   0.654   1.023 -0.2267  0.5536 -0.1311
    7HFI     F6  571   1.639   0.692   0.900 -0.1993 -0.0662 -0.5297
    7HFI     H1  572   1.590   0.905   0.741 -0.0720 -0.1034  1.8004
    7HFI     H2  573   1.352   0.847   0.901 -0.0388  0.0485 -0.2044
    8HFI     O1  574   2.261   2.015   0.267  0.0151 -0.3292 -0.1389
    8HFI     C1  575   2.327   1.898   0.328  0.1299 -0.0454 -0.2155
    8HFI     C2  576   2.474   1.894   0.281 -0.0064 -1.0110 -0.3598
    8HFI     F1  577   2.534   2.014   0.305  0.3108  0.0633  0.0163
    8HFI     F2  578   2.486   1.861   0.150  0.0132  0.1539  0.0496
    8HFI     F3  579   2.549   1.811   0.352 -0.1919  0.2769  0.1383
    8HFI     C3  580   2.251   1.766   0.317 -0.2529 -0.3010 -0.5909
    8HFI     F4  581   2.202   1.753   0.196  0.1544  0.1304  0.5425
    8HFI     F5  582   2.147   1.763   0.402 -0.7096 -0.1240  0.6505
    8HFI     F6  583   2.328   1.658   0.350  0.5969  0.1490 -0.2075
    8HFI     H1  584   2.239   1.992   0.175  1.1291 -2.6651  0.1159
    8HFI     H2  585   2.329   1.909   0.437 -0.4702  1.1870 -0.3140
    9HFI     O1  586   3.114   1.276   0.929  0.3009  0.8095 -0.3343
    9HFI     C1  587   3.180   1.147   0.958 -0.1632  0.0398  0.1907
    9HFI     C2  588   3.075   1.032   0.980  0.6042  0.1547 -0.1231
    9HFI     F1  589   2.989   1.036   0.878 -0.2468  0.5302  0.0293
    9HFI     F2  590   3.004   1.044   1.095 -0.1183  0.2633 -0.6656
    9HFI     F3  591   3.128   0.908   0.976 -0.4309 -0.5044 -0.3355
    9HFI     C3  592   3.290   1.154   1.072 -0.1353 -0.5497  0.4015
    9HFI     F4  593   3.386   1.245   1.052  0.3354 -0.5371  0.0219
    9HFI     F5  594   3.359   1.039   1.085  0.3383  0.2035  0.0125
    9HFI     F6  595   3.230   1.177   1.191  0.7118 -0.6933  0.2353
    9HFI     H1  596   3.116   1.335   1.006 -0.0616 -1.1232  1.1903
    9HFI     H2  597   3.238   1.122   0.868 -0.0156 -0.8984  0.5422
   10HFI     O1  598   2.920   2.226   0.439  0.2834 -0.4735  0.7303
   10HFI     C1  599   2.921   2.376   0.451 -0.2503  0.0010 -1.0729
   10HFI     C2  600   2.889   2.431   0.594 -0.8162  0.1131 -0.4265
   10HFI     F1  601   2.951   2.366   0.683 -0.1975  0.2529 -0.3460
   10HFI     F2  602   2.750   2.416   0.622 -0.0103 -0.0175  0.3282
   10HFI     F3  603   2.898   2.562   0.597  0.0960 -0.9374 -0.3543
   10HFI     C3  604   2.838   2.438   0.335  0.4830  0.1652  0.2003
   10HFI     F4  605   2.861   2.571   0.336  0.7388 -0.0187  0.4833
   10HFI     F5  606   2.702   2.413   0.356  0.1205 -0.2853 -0.0263
   10HFI     F6  607   2.876   2.386   0.214 -0.2101 -0.2078 -0.4375
   10HFI     H1  608   2.827   2.199   0.453  0.2478 -1.5158 -1.4040
   10HFI     H2  609   3.022   2.412   0.431 -0.6857  1.0032 -1.5508
   11HFI     O1  610   1.409   2.065   0.868  0.4381  0.3291  0.2679
   11HFI     C1  611   1.499   1.972   0.940 -0.0032  0.3258  0.4713
   11HFI     C2  612   1.553   1.854   0.857 -0.1152 -0.0563 -1.1103
   11HFI     F1  613   1.659   1.798   0.921  0.4964 -0.0058 -0.1073
   11HFI     F2  614   1.584   1.906   0.734 -0.1487  0.0352 -0.7140
   11HFI     F3  615   1.459   1.765   0.835 -0.2223 -0.2816  0.5231
   11HFI     C3  616   1.436   1.926   1.072 -0.3716  0.1147  0.1950
   11HFI     F4  617   1.395   2.029   1.142 -0.3819 -0.6678 -0.1809
   11HFI     F5  618   1.523   1.860   1.151  0.3055  0.0783 -0.0357
   11HFI     F6  619   1.332   1.851   1.063 -0.4115 -0.1535 -0.9777
   11HFI     H1  620   1.421   2.051   0.773 -0.4967  1.6898 -0.0639
   11HFI     H2  621   1.583   2.035   0.974 -1.0978  1.9151  0.2826
   12HFI     O1  622   2.954   2.812   0.054  0.5454  0.4775  0.2137
   12HFI     C1  623   2.995   2.923   0.141  0.2293 -0.4741 -0.1266
   12HFI     C2  624   2.955   2.900   0.294 -0.4924 -0.3837  0.1083
   12HFI     F1  625   2.824   2.879   0.296 -0.2477  0.7338  0.1433
   12HFI     F2  626   2.983   3.009   0.376 -0.2015 -0.0005  0.0598
   12HFI     F3  627   3.024   2.794   0.341 -0.0085  0.5817 -0.2221
   12HFI     C3  628   2.939   3.056   0.085  0.1039 -0.4991 -0.2119
   12HFI     F4  629   2.983   3.162   0.155  0.0099  0.3113 -0.2872
   12HFI     F5  630   2.800   3.057   0.088  0.0128  0.2122 -0.0717
   12HFI     F6  631   2.981   3.082  -0.035  0.1796 -0.1681  0.1245
   12HFI     H1  632   2.859   2.792   0.060  1.0179 -2.3046 -0.7635
   12HFI     H2  633   3.102   2.946   0.150  0.1470 -0.2639  0.3710
   13HFI     O1  634   3.085   2.397   1.273 -0.1227  0.6269  0.0414
   13HFI     C1  635   2.981   2.491   1.321  0.5631  0.3906 -0.4495
   13HFI     C2  636   3.035   2.639   1.332  0.4911 -0.2079  0.1142
   13HFI     F1  637   3.092   2.666   1.454  0.3222 -0.2518  0.3202
   13HFI     F2  638   2.935   2.734   1.305  0.5531  0.0555 -0.0444
   13HFI     F3  639   3.120   2.652   1.232 -0.2152 -0.4060 -0.3242
   13HFI     C3  640   2.912   2.433   1.448  0.0605 -0.1779 -0.2743
   13HFI     F4  641   2.846   2.323   1.429  0.2415 -0.2653 -0.4015
   13HFI     F5  642   2.831   2.533   1.504  0.5235 -0.1034  0.0898
   13HFI     F6  643   3.001   2.399   1.542 -0.3216  0.0998 -0.0955
   13HFI     H1  644   3.043   2.332   1.215  1.8170  0.2193 -0.9425
   13HFI     H2  645   2.905   2.501   1.243 -0.7366 -0.9481  0.6013
   14HFI     O1  646   0.469   0.825   0.415 -0.3052 -0.1053  0.4214
   14HFI     C1  647   0.324   0.818   0.369  0.4428 -0.4924 -0.9618
   14HFI     C2  648   0.295   0.947   0.280 -0.1471  0.1225  0.2152
   14HFI     F1  649   0.298   1.060   0.355 -0.1790  0.2587 -0.1369
   14HFI     F2  650   0.171   0.931   0.224 -0.6872  0.1677  0.3596
   14HFI     F3  651   0.385   0.961   0.173 -0.2533  0.1095 -0.1519
   14HFI     C3  652   0.227   0.799   0.488  0.0361 -0.4189  0.1178
   14HFI     F4  653   0.235   0.909   0.569  0.1799  0.1620  0.4711
   14HFI     F5  654   0.266   0.692   0.564 -0.5601 -0.4065  0.3754
   14HFI     F6  655   0.102   0.785   0.443 -0.1802  0.1658 -0.4886
   14HFI     H1  656   0.481   0.897   0.479 -2.5533 -0.1008  0.8913
   14HFI     H2  657   0.296   0.734   0.305 -1.6053  0.3668 -1.2333
   15HFI     O1  658   0.400   0.439   1.599 -0.4010 -0.6612  0.0130
   15HFI     C1  659   0.409   0.322   1.516 -0.1420  0.5298 -0.3377
   15HFI     C2  660   0.543   0.317   1.435 -0.1247 -0.1246  0.3540
   15HFI     F1  661   0.556   0.421   1.357 -0.7476  0.1108  0.0840
   15HFI     F2  662   0.538   0.214   1.347  0.1041  0.5116 -0.0207
   15HFI     F3  663   0.647   0.310   1.514 -0.5925 -0.3486 -0.2594
   15HFI     C3  664   0.282   0.320   1.428 -0.2892 -0.7650 -0.3731
   15HFI     F4  665   0.280   0.205   1.354  0.1670  0.2650  0.0811
   15HFI     F5  666   0.280   0.428   1.346 -0.1538 -0.3623  0.4385
   15HFI     F6  667   0.166   0.324   1.495  0.5387  0.0703 -0.4766
   15HFI     H1  668   0.350   0.511   1.556  1.2486  0.1610 -0.5569
   15HFI     H2  669   0.407   0.230   1.576  1.6406  1.1907  0.7692
   16HFI     O1  670   0.863   3.021   2.562 -0.0288  0.1466  0.4963
   16HFI     C1  671   0.791   2.906   2.501 -0.2299 -0.3403  0.9424
   16HFI     C2  672   0.795   2.779   2.595  0.8622  0.1611  0.7204
   16HFI     F1  673   0.745   2.820   2.716 -0.0029  0.3345 -0.2293
   16HFI     F2  674   0.921   2.725   2.616  0.4934 -0.0857 -0.4301
   16HFI     F3  675   0.711   2.678   2.553  0.0009 -0.0860  0.4011
   16HFI     C3  676   0.830   2.872   2.351 -0.0782 -1.1307 -0.2328
   16HFI     F4  677   0.830   2.984   2.284  0.3666  0.1216  0.0326
   16HFI     F5  678   0.753   2.785   2.289 -0.0982  0.2015  0.4972
   16HFI     F6  679   0.955   2.830   2.337  0.0860  0.3457  0.2219
   16HFI     H1  680   0.886   2.997   2.654  1.6757 -0.7823 -0.1625
   16HFI     H2  681   0.682   2.915   2.506 -0.2746 -0.1916 -0.2878
   17HFI     O1  682   0.722   0.643   1.504  0.2840  0.2845  0.0119
   17HFI     C1  683   0.661   0.752   1.422 -0.7465  0.4624  0.6061
   17HFI     C2  684   0.770   0.853   1.370 -0.3130  0.0149  0.4447
   17HFI     F1  685   0.842   0.785   1.275  0.3354 -0.1454 -0.1272
   17HFI     F2  686   0.850   0.885   1.474 -0.5216 -0.2328  0.1081
   17HFI     F3  687   0.718   0.965   1.305 -0.1940  0.3393  0.4512
   17HFI     C3  688   0.554   0.825   1.497 -0.1208  0.2563 -0.1163
   17HFI     F4  689   0.470   0.739   1.550  0.1891  0.0527 -0.5203
   17HFI     F5  690   0.481   0.900   1.415 -0.0536 -0.7714  0.1935
   17HFI     F6  691   0.604   0.906   1.591 -0.3019 -0.4749  0.0515
   17HFI     H1  692   0.765   0.580   1.444 -1.2665  2.9661 -4.1028
   17HFI     H2  693   0.604   0.715   1.336  0.7940 -0.6624  0.0410
   18HFI     O1  694   0.277   2.308   3.148  0.8029  0.1885  0.0231
   18HFI     C1  695   0.183   2.370   3.242  0.6139  0.3810  0.3162
   18HFI     C2  696   0.100   2.477   3.161  0.1302  0.5845 -0.4051
   18HFI     F1  697   0.021   2.420   3.069  0.0689  0.2624 -0.3261
   18HFI     F2  698   0.189   2.551   3.083  0.3245  0.0577  0.7368
   18HFI     F3  699   0.028   2.563   3.236  0.2996 -0.1325 -0.4705
   18HFI     C3  700   0.256   2.431   3.365 -0.5474  0.0442  0.1823
   18HFI     F4  701   0.340   2.530   3.337  0.1233  0.3437 -0.5078
   18HFI     F5  702   0.328   2.333   3.430 -0.1340  0.3532  0.2322
   18HFI     F6  703   0.168   2.477   3.458  0.3232  0.1668  0.1745
   18HFI     H1  704   0.219   2.261   3.085 -1.7584  0.1791  2.3053
   18HFI     H2  705   0.119   2.295   3.290  0.3546 -0.6324 -1.5715
   19HFI     O1  706   3.160   3.291   0.412 -0.2201  0.3621  0.1304
   19HFI     C1  707   3.298   3.244   0.431  0.0223 -0.6116 -0.6037
   19HFI     C2  708   3.341   3.154   0.313  0.0772 -0.1869 -0.3769
   19HFI     F1  709   3.292   3.218   0.204 -0.2243  0.2858  0.2269
   19HFI     F2  710   3.287   3.027   0.312  0.0408  0.0593  0.0844
   19HFI     F3  711   3.480   3.133   0.301  0.1096 -0.3274 -0.1968
   19HFI     C3  712   3.323   3.159   0.555 -0.4028 -0.3354  0.2793
   19HFI     F4  713   3.442   3.089   0.552 -0.0202  0.1756 -0.3714
   19HFI     F5  714   3.222   3.071   0.589  0.0612  0.4551  0.0490
   19HFI     F6  715   3.329   3.242   0.658 -0.1035 -0.4560  0.7835
   19HFI     H1  716   3.109   3.303   0.494 -1.4099  1.3909 -0.7504
   19HFI     H2  717   3.371   3.326   0.435 -0.6616 -0.0706  1.0226
   20HFI     O1  718   2.731   0.097   1.583 -0.1895  0.0908  0.3358
   20HFI     C1  719   2.726   0.236   1.539  0.4085  0.0700 -0.2279
   20HFI     C2  720   2.626   0.253   1.415  0.1433  0.1687 -0.5048
   20HFI     F1  721   2.503   0.210   1.442 -0.5710  0.0767 -0.2272
   20HFI     F2  722   2.673   0.194   1.305  0.3367 -0.1464  0.5215
   20HFI     F3  723   2.616   0.384   1.380 -0.3254 -0.1869  0.1730
   20HFI     C3  724   2.860   0.292   1.516  0.1797 -0.7215 -0.3861
   20HFI     F4  725   2.859   0.425   1.538 -0.7807 -0.1427  0.6737
   20HFI     F5  726   2.916   0.270   1.396  0.3682 -0.5510 -0.0417
   20HFI     F6  727   2.955   0.245   1.599 -0.0351  0.2350 -0.1163
   20HFI     H1  728   2.807   0.063   1.534 -1.2856 -1.5818 -0.2317
   20HFI     H2  729   2.670   0.284   1.620 -1.8033 -3.5541  0.5246
   21HFI     O1  730   1.526   2.814   0.300 -0.0952  0.6089  0.1869
   21HFI     C1  731   1.659   2.788   0.363 -0.0762  0.7456 -0.1033
   21HFI     C2  732   1.725   2.657   0.325  0.0190 -0.1761 -0.5913
   21HFI     F1  733   1.749   2.658   0.200 -0.2419 -0.2195 -0.6536
   21HFI     F2  734   1.641   2.550   0.364 -0.0284  0.5129  0.5211
   21HFI     F3  735   1.841   2.643   0.393 -0.9026 -0.6418  0.1117
   21HFI     C3  736   1.650   2.814   0.524 -0.2057 -0.0908  0.6372
   21HFI     F4  737   1.608   2.702   0.591  0.4182 -0.1741 -0.1581
   21HFI     F5  738   1.564   2.913   0.552 -0.5944  0.4101  0.1646
   21HFI     F6  739   1.765   2.852   0.569  0.0532  0.6247 -0.3338
   21HFI     H1  740   1.459   2.760   0.345 -1.0126  0.1715 -1.6161
   21HFI     H2  741   1.722   2.868   0.324  0.8050  0.7960  1.3869
   22HFI     O1  742   1.272   0.116   0.799 -0.1952 -0.4386  0.3704
   22HFI     C1  743   1.175   0.216   0.852  0.5188 -0.8041 -0.0809
   22HFI     C2  744   1.037   0.141   0.868 -0.4545  0.0108  0.3578
   22HFI     F1  745   1.045   0.029   0.951 -0.3205 -0.9282 -0.6252
   22HFI     F2  746   0.993   0.094   0.752  0.4322 -0.4459  0.0686
   22HFI     F3  747   0.946   0.226   0.922  0.0089 -0.0948  0.1090
   22HFI     C3  748   1.176   0.354   0.785 -0.8634 -0.4370  1.1676
   22HFI     F4  749   1.299   0.396   0.749  0.2816 -0.2129 -0.1240
   22HFI     F5  750   1.134   0.448   0.875  0.4197  0.2283 -0.6526
   22HFI     F6  751   1.098   0.370   0.675  0.3543 -0.2122  0.0466
   22HFI     H1  752   1.269   0.104   0.703 -0.3800 -0.6670  0.4042
   22HFI     H2  753   1.187   0.226   0.960 -1.1926  0.1767  0.0351
   23HFI     O1  754   3.345   2.787   2.733 -0.3934 -0.6421 -0.0874
   23HFI     C1  755   3.265   2.704   2.822  0.1515  0.9687 -0.3677
   23HFI     C2  756   3.249   2.555   2.776  0.6276  0.1955 -0.3795
   23HFI     F1  757   3.374   2.501   2.750 -0.2171  0.1374  0.1307
   23HFI     F2  758   3.172   2.545   2.664 -0.7701  0.4709  0.2753
   23HFI     F3  759   3.201   2.475   2.878  0.1440 -0.6521  0.2059
   23HFI     C3  760   3.132   2.779   2.859  0.3989 -0.2844 -0.5885
   23HFI     F4  761   3.042   2.786   2.757  0.5094 -0.2006 -0.2808
   23HFI     F5  762   3.168   2.904   2.901  0.2776  0.2179 -0.2695
   23HFI     F6  763   3.075   2.728   2.970  0.3091  0.5587 -0.1142
   23HFI     H1  764   3.414   2.730   2.696 -0.3652 -0.0719 -0.9346
   23HFI     H2  765   3.320   2.703   2.917 -2.1705 -0.5752  1.0019
   24HFI     O1  766   1.568   0.538   1.372  0.6123  0.2725  0.2271
   24HFI     C1  767   1.666   0.631   1.439 -0.7011 -0.0646  0.4422
   24HFI     C2  768   1.752   0.556   1.540  0.5171  0.0235  0.5009
   24HFI     F1  769   1.839   0.644   1.596  0.1518 -0.1831 -0.3039
   24HFI     F2  770   1.826   0.459   1.472 -0.5818 -0.2584  0.2346
   24HFI     F3  771   1.676   0.492   1.626 -0.4504  0.3231  0.5603
   24HFI     C3  772   1.600   0.756   1.497  0.4662  0.4644 -0.2052
   24HFI     F4  773   1.689   0.842   1.550  0.0735  0.2311  0.4785
   24HFI     F5  774   1.508   0.725   1.594 -0.2782  0.5049 -0.3925
   24HFI     F6  775   1.543   0.822   1.397  0.5240 -0.8250 -0.2031
   24HFI     H1  776   1.607   0.484   1.301 -0.6258  1.1927 -1.1973
   24HFI     H2  777   1.735   0.662   1.360 -0.4100 -0.8109  0.4007
   25HFI     O1  778   0.024   1.253   3.260  0.0685 -0.5236  0.1768
   25HFI     C1  779   0.103   1.342   3.340  0.1823  0.4796  0.1024
   25HFI     C2  780   0.238   1.371   3.275  0.7672  0.5012  0.3179
   25HFI     F1  781   0.309   1.459   3.352 -0.0225  0.1419  0.6200
   25HFI     F2  782   0.215   1.430   3.154  0.2175  0.1293  0.1887
   25HFI     F3  783   0.302   1.255   3.263 -0.0800 -0.1911  0.3714
   25HFI     C3  784   0.101   1.308   3.483  0.3426  0.3346 -0.2529
   25HFI     F4  785   0.141   1.408   3.559 -0.2080  0.2949 -0.2358
   25HFI     F5  786   0.186   1.204   3.508 -0.1715  0.6678  0.1390
   25HFI     F6  787  -0.019   1.269   3.532 -0.3071  0.3315 -0.4224
   25HFI     H1  788   0.034   1.261   3.164  1.2140 -2.0267  0.1424
   25HFI     H2  789   0.061   1.443   3.341  2.5538  1.4861  0.1124
   26HFI     O1  790   1.759   2.912   3.160 -0.2642  0.7086 -0.3568
   26HFI     C1  791   1.645   2.840   3.227 -0.5259  0.0188 -0.0624
   26HFI     C2  792   1.564   2.932   3.313 -0.2900 -0.3330  1.0274
   26HFI     F1  793   1.620   2.946   3.428 -0.2352  0.2785 -0.2221
   26HFI     F2  794   1.442   2.875   3.329  0.2726 -0.0964 -0.2584
   26HFI     F3  795   1.538   3.052   3.250  1.0620  0.3228  0.0142
   26HFI     C3  796   1.693   2.709   3.293 -0.0471 -0.0309  0.2320
   26HFI     F4  797   1.596   2.646   3.359 -0.1646  0.0382 -0.6663
   26HFI     F5  798   1.790   2.735   3.378  0.3973 -0.2128  0.1826
   26HFI     F6  799   1.740   2.623   3.208 -0.1850  0.0785 -0.1583
   26HFI     H1  800   1.813   2.951   3.231 -3.4257  1.8788  1.4995
   26HFI     H2  801   1.575   2.804   3.149  1.6147  1.1516 -2.5853
   27HFI     O1  802   0.030   2.406   1.314  0.0033 -0.3194 -0.2576
   27HFI     C1  803  -0.001   2.540   1.355 -0.0494 -0.5736  0.0923
   27HFI     C2  804   0.072   2.633   1.263 -0.1037  0.1987  0.5043
   27HFI     F1  805   0.204   2.610   1.249 -0.4286 -0.0988  0.4443
   27HFI     F2  806   0.055   2.758   1.302 -0.3785  0.2878  0.2745
   27HFI     F3  807   0.015   2.625   1.139 -0.3837 -0.2994  0.2947
   27HFI     C3  808   0.021   2.566   1.515  0.3268  0.8084  0.3177
   27HFI     F4  809  -0.063   2.656   1.575 -0.6318 -0.2486 -0.6396
   27HFI     F5  810   0.152   2.595   1.538 -0.1560 -0.7172  0.2017
   27HFI     F6  811  -0.006   2.449   1.582 -1.0360 -0.2372 -0.4016
   27HFI     H1  812   0.126   2.393   1.308 -0.2717 -2.2003 -0.6507
   27HFI     H2  813  -0.107   2.561   1.338 -0.0356 -0.8855 -0.3574
   28HFI     O1  814   3.314   1.258   2.971 -0.3178  0.2851  0.1590
   28HFI     C1  815   3.406   1.226   2.865 -0.1945  0.2451  0.3772
   28HFI     C2  816   3.439   1.361   2.791 -0.0958 -0.2680  0.1778
   28HFI     F1  817   3.331   1.404   2.720  0.4687  0.3026 -0.1610
   28HFI     F2  818   3.540   1.347   2.706  0.1773  0.3858  0.5531
   28HFI     F3  819   3.470   1.459   2.880  0.0130 -0.1200  0.3590
   28HFI     C3  820   3.353   1.122   2.765 -0.6028 -0.0303  0.9491
   28HFI     F4  821   3.299   1.013   2.827 -0.0627 -0.1863 -0.2985
   28HFI     F5  822   3.449   1.077   2.678  0.2708  0.4524  0.0732
   28HFI     F6  823   3.250   1.174   2.694  0.3464  0.6914 -0.3766
   28HFI     H1  824   3.229   1.289   2.935 -0.3904 -0.4637 -0.3286
   28HFI     H2  825   3.503   1.196   2.907  1.5073 -0.0029 -3.5027
   29HFI     O1  826   2.546   3.055   1.579  0.2127 -0.1928  0.1648
   29HFI     C1  827   2.580   2.981   1.462 -0.9793  0.0742 -0.1212
   29HFI     C2  828   2.583   2.828   1.505 -0.3782  0.2862 -0.2713
   29HFI     F1  829   2.462   2.795   1.546  0.5409  0.4497 -0.0410
   29HFI     F2  830   2.663   2.800   1.609 -0.0811  0.0696 -0.2514
   29HFI     F3  831   2.619   2.746   1.397  0.1351  0.5272  0.2739
   29HFI     C3  832   2.710   3.026   1.402  0.3619 -0.9431  0.4732
   29HFI     F4  833   2.740   2.961   1.285 -0.0440  0.5609 -0.1670
   29HFI     F5  834   2.816   3.016   1.484  0.2191  0.3532 -0.1451
   29HFI     F6  835   2.700   3.156   1.378  0.1498 -0.0266 -0.3430
   29HFI     H1  836   2.582   3.146   1.575  0.0686 -0.1380  0.1312
   29HFI     H2  837   2.504   2.993   1.384  0.7503  0.2276 -1.8270
   30HFI     O1  838   0.308   0.080   3.307  0.2123 -0.1328  0.6126
   30HFI     C1  839   0.205   0.136   3.229  0.0732  0.3740  0.1383
   30HFI     C2  840   0.145   0.269   3.280 -0.0778 -1.0610 -0.8895
   30HFI     F1  841   0.107   0.270   3.415  0.0606 -0.0730  0.4095
   30HFI     F2  842   0.042   0.313   3.216  0.2041  0.3257 -0.2844
   30HFI     F3  843   0.243   0.363   3.272 -0.0471  0.0466 -0.5712
   30HFI     C3  844   0.098   0.028   3.188 -0.1176  0.1938  0.5938
   30HFI     F4  845   0.043   0.067   3.074 -0.2285 -0.6449 -0.5265
   30HFI     F5  846   0.003   0.022   3.284 -0.1159 -0.0002  0.0006
   30HFI     F6  847   0.145  -0.100   3.175 -0.5326  0.2639  0.0788
   30HFI     H1  848   0.318   0.144   3.380  0.2901 -1.0717  1.4365
   30HFI     H2  849   0.247   0.170   3.134 -1.2692  0.9763 -0.2465
   31HFI     O1  850   3.052   0.702   1.596 -0.0826 -0.5256 -0.3326
   31HFI     C1  851   3.177   0.751   1.549  0.2571  0.0212 -0.2010
   31HFI     C2  852   3.155   0.879   1.460  0.1219 -0.0538  0.4526
   31HFI     F1  853   3.117   0.983   1.535  0.2025 -0.0771 -0.2294
   31HFI     F2  854   3.053   0.853   1.374  0.5057 -0.8230  0.3716
   31HFI     F3  855   3.264   0.917   1.386  0.3604  0.0292  0.0352
   31HFI     C3  856   3.251   0.632   1.484 -0.4285  0.7790 -0.4915
   31HFI     F4  857   3.257   0.530   1.570 -0.0750  0.1079  0.1632
   31HFI     F5  858   3.381   0.660   1.458  0.0708  0.2329  0.1307
   31HFI     F6  859   3.186   0.598   1.372  0.4075 -0.1437 -0.4191
   31HFI     H1  860   3.047   0.604   1.596 -0.1088 -0.5271  0.1594
   31HFI     H2  861   3.234   0.792   1.633  0.4772  0.7553 -0.7069
   32HFI     O1  862   1.735   1.438   0.477  0.4937  0.3132 -0.4651
   32HFI     C1  863   1.811   1.568   0.446 -0.1927 -0.3076 -1.0288
   32HFI     C2  864   1.753   1.677   0.541 -0.0482 -0.6253 -0.1614
   32HFI     F1  865   1.791   1.652   0.670  0.6173  0.0961  0.0008
   32HFI     F2  866   1.621   1.694   0.536 -0.2662  0.0965  0.0655
   32HFI     F3  867   1.806   1.801   0.512 -0.0242  0.4036 -0.1514
   32HFI     C3  868   1.790   1.615   0.299 -0.0125 -0.1858 -0.3461
   32HFI     F4  869   1.819   1.509   0.221  0.2505  0.0498  0.3450
   32HFI     F5  870   1.875   1.712   0.268 -0.1138  0.2261  0.2029
   32HFI     F6  871   1.664   1.660   0.269 -0.3995  0.0087  0.2408
   32HFI     H1  872   1.640   1.460   0.482  0.5047  0.2584 -0.0566
   32HFI     H2  873   1.917   1.552   0.471 -0.6580 -1.6263  0.1468
   33HFI     O1  874   2.269   3.235   0.388  0.3145  0.4067 -0.0927
   33HFI     C1  875   2.160   3.189   0.299 -0.4214 -0.5461 -0.2133
   33HFI     C2  876   2.098   3.052   0.341 -0.5800 -0.0003  0.4030
   33HFI     F1  877   2.191   2.952   0.344 -0.2349 -0.1506 -0.5790
   33HFI     F2  878   2.002   3.020   0.254  0.0066 -0.2728  0.1022
   33HFI     F3  879   2.042   3.070   0.463  0.0103  0.4453 -0.1387
   33HFI     C3  880   2.201   3.204   0.150  0.1816  0.6369 -0.5710
   33HFI     F4  881   2.097   3.214   0.072  0.2328  0.2784 -0.1583
   33HFI     F5  882   2.282   3.103   0.115 -0.0838  0.0753 -0.2635
   33HFI     F6  883   2.270   3.324   0.130  0.0293  0.2508 -0.3660
   33HFI     H1  884   2.336   3.166   0.399  0.6589  0.2642 -2.8787
   33HFI     H2  885   2.077   3.261   0.307  1.2871  1.6235 -1.6365
   34HFI     O1  886   2.095   2.209   3.290 -0.4594  0.4286 -0.3058
   34HFI     C1  887   1.965   2.224   3.226 -0.2098 -0.3201  0.2249
   34HFI     C2  888   1.850   2.197   3.332  0.2126  0.7783 -0.5025
   34HFI     F1  889   1.835   2.072   3.365 -0.7760  0.0538 -0.2905
   34HFI     F2  890   1.736   2.234   3.283 -0.4070 -0.2867  0.1046
   34HFI     F3  891   1.874   2.252   3.454 -0.1523  0.0803 -0.3595
   34HFI     C3  892   1.950   2.113   3.114  0.5850  0.4365  0.1105
   34HFI     F4  893   1.829   2.124   3.054  0.1936  0.6153  0.1406
   34HFI     F5  894   1.968   1.989   3.164 -0.0097 -1.1280 -0.4697
   34HFI     F6  895   2.035   2.121   3.010 -0.8683  0.3898  0.6869
   34HFI     H1  896   2.163   2.209   3.221  0.2591 -0.3690  0.3940
   34HFI     H2  897   1.942   2.321   3.179  0.5591 -0.4605 -0.4650
   35HFI     O1  898   3.182   1.543   1.331 -0.2571 -0.6341 -0.2042
   35HFI     C1  899   3.043   1.537   1.375  0.2834  0.6277 -0.6736
   35HFI     C2  900   3.019   1.534   1.527  0.3230 -0.2585 -0.2338
   35HFI     F1  901   3.082   1.636   1.583 -0.0166 -0.3796  0.1662
   35HFI     F2  902   3.068   1.425   1.588 -0.6051 -0.1407  0.3020
   35HFI     F3  903   2.891   1.540   1.553 -0.3018 -0.2352 -0.1469
   35HFI     C3  904   2.981   1.405   1.310  0.0204  0.2260  0.3513
   35HFI     F4  905   3.034   1.383   1.185 -0.3480  0.3501  0.1193
   35HFI     F5  906   2.847   1.420   1.289  0.2393  0.1688  0.1517
   35HFI     F6  907   2.991   1.288   1.378 -0.5837  0.3626 -0.0584
   35HFI     H1  908   3.235   1.539   1.412  0.2085 -3.7617 -0.6116
   35HFI     H2  909   2.981   1.618   1.335  1.1318  1.9868  0.7440
   36HFI     O1  910   0.653   2.794   1.293  0.1449 -0.3735  0.0863
   36HFI     C1  911   0.609   2.871   1.409  0.3787 -0.0779 -0.3911
   36HFI     C2  912   0.705   2.856   1.521  0.5223 -0.0593 -0.2269
   36HFI     F1  913   0.711   2.729   1.571 -0.3052 -0.0504  0.1210
   36HFI     F2  914   0.684   2.941   1.618  0.0622  0.5404 -0.4997
   36HFI     F3  915   0.827   2.886   1.473  0.1215  0.4012  0.0801
   36HFI     C3  916   0.463   2.833   1.449  0.1124 -0.4500 -0.3363
   36HFI     F4  917   0.442   2.695   1.447  0.7215 -0.3414  0.1992
   36HFI     F5  918   0.365   2.899   1.371  0.1356 -0.0900 -0.3658
   36HFI     F6  919   0.439   2.872   1.583  0.1184 -0.0584 -0.2172
   36HFI     H1  920   0.727   2.743   1.331  0.3147  1.0199  1.7368
   36HFI     H2  921   0.613   2.977   1.383 -0.9314  0.2788  0.8522
   37HFI     O1  922   1.856   2.057   0.939 -0.9865  0.3596  0.1637
   37HFI     C1  923   1.976   1.973   0.928 -1.0132 -0.4955 -0.1500
   37HFI     C2  924   2.033   1.950   1.074  0.5797  0.0507 -0.4367
   37HFI     F1  925   1.947   1.876   1.147 -0.1996  0.1207 -0.1219
   37HFI     F2  926   2.059   2.065   1.133 -0.0098  0.4358 -0.5264
   37HFI     F3  927   2.140   1.876   1.076  0.1167  0.2633  0.2497
   37HFI     C3  928   2.083   2.024   0.822 -0.0207 -0.2850 -0.0456
   37HFI     F4  929   2.038   1.992   0.698 -0.5193  0.7427 -0.4436
   37HFI     F5  930   2.208   1.966   0.838 -0.0679 -0.3019  0.1197
   37HFI     F6  931   2.089   2.159   0.832 -0.5172  0.3856 -0.0074
   37HFI     H1  932   1.888   2.146   0.964  1.9364 -0.2220 -1.2638
   37HFI     H2  933   1.949   1.876   0.883  2.2543 -1.5630 -0.0011
   38HFI     O1  934   2.316   0.540   1.292 -0.3453  0.0042  0.6220
   38HFI     C1  935   2.263   0.601   1.416 -0.6828 -0.7756  0.0065
   38HFI     C2  936   2.369   0.689   1.492 -0.2049 -0.3509  0.0023
   38HFI     F1  937   2.330   0.734   1.609 -0.0896 -0.2361 -0.5177
   38HFI     F2  938   2.396   0.792   1.412 -0.4434  0.1903 -0.3215
   38HFI     F3  939   2.484   0.629   1.507  0.1621 -0.0328 -0.3517
   38HFI     C3  940   2.194   0.493   1.497 -0.6583 -0.3720 -0.1406
   38HFI     F4  941   2.278   0.425   1.574 -0.0247 -0.0464 -0.1124
   38HFI     F5  942   2.130   0.407   1.410  0.7884  0.2114  0.1685
   38HFI     F6  943   2.093   0.551   1.572 -0.1948  0.1971 -0.1923
   38HFI     H1  944   2.402   0.500   1.312 -0.0788  1.7218  3.0910
   38HFI     H2  945   2.181   0.669   1.388  1.5469  2.2587  0.5810
   39HFI     O1  946   1.105   2.335   1.314  0.3685  0.2566 -0.1550
   39HFI     C1  947   1.045   2.445   1.385 -0.1199  0.0475 -0.0343
   39HFI     C2  948   0.999   2.398   1.524  0.1164  0.0090 -0.1209
   39HFI     F1  949   1.102   2.357   1.596 -0.0583  0.0204  0.0327
   39HFI     F2  950   0.901   2.302   1.517  0.1229  0.6552  0.5623
   39HFI     F3  951   0.949   2.500   1.594  0.1741  0.0779  0.0165
   39HFI     C3  952   0.938   2.514   1.296 -1.0019 -0.0260 -0.0362
   39HFI     F4  953   0.838   2.428   1.262  0.5694 -0.2834 -0.0950
   39HFI     F5  954   0.998   2.558   1.181  0.0162 -0.0224 -0.1654
   39HFI     F6  955   0.892   2.632   1.351  0.0519 -0.6101  0.5237
   39HFI     H1  956   1.143   2.268   1.373 -1.9027 -0.1693  0.8603
   39HFI     H2  957   1.119   2.522   1.408 -0.0381  0.2815 -1.0492
   40HFI     O1  958   0.711   1.448   0.105 -0.1190 -0.2773 -0.4691
   40HFI     C1  959   0.584   1.386   0.054  0.4481  0.1654 -0.3445
   40HFI     C2  960   0.617   1.255  -0.007  0.1121  0.3403  0.1058
   40HFI     F1  961   0.656   1.166   0.083 -0.4379 -0.1512 -0.1001
   40HFI     F2  962   0.709   1.269  -0.108  0.0454  0.0183 -0.2994
   40HFI     F3  963   0.504   1.206  -0.063 -0.0889 -0.1892  0.0231
   40HFI     C3  964   0.491   1.476  -0.035  0.0723  0.3198 -0.9472
   40HFI     F4  965   0.476   1.595   0.024 -0.4660  0.4584  0.1109
   40HFI     F5  966   0.368   1.422  -0.052 -0.0291  0.2875  0.0700
   40HFI     F6  967   0.546   1.503  -0.154 -0.7832 -0.2365  0.1586
   40HFI     H1  968   0.758   1.483   0.027 -0.4850 -1.1293 -1.0776
   40HFI     H2  969   0.522   1.366   0.143  0.4895  0.4129 -0.2593
   41HFI     O1  970   2.161   0.702   0.740  1.1805  0.8271 -1.0831
   41HFI     C1  971   2.186   0.704   0.883  0.0331  0.1094 -0.0877
   41HFI     C2  972   2.052   0.683   0.956 -0.1338 -0.0739 -0.2867
   41HFI     F1  973   1.961   0.772   0.909 -0.2657 -0.3994 -0.3271
   41HFI     F2  974   2.076   0.708   1.087  0.5803 -0.0270  0.2628
   41HFI     F3  975   1.997   0.559   0.946 -0.6347  0.1832  0.1307
   41HFI     C3  976   2.278   0.827   0.918  0.2347 -0.4026  0.1731
   41HFI     F4  977   2.358   0.808   1.030 -0.3011  0.1821  0.2075
   41HFI     F5  978   2.201   0.935   0.931  0.4157  0.4325  0.3764
   41HFI     F6  979   2.354   0.846   0.816 -0.4525 -0.3758  0.2517
   41HFI     H1  980   2.225   0.756   0.690  1.3219  0.0520 -1.7619
   41HFI     H2  981   2.246   0.620   0.918 -1.7156  0.3052  3.6420
   42HFI     O1  982   1.819   2.284   0.407 -0.0546 -0.2557 -0.0301
   42HFI     C1  983   1.686   2.235   0.416 -0.2292 -0.2118 -0.4813
   42HFI     C2  984   1.641   2.219   0.566  0.7425 -0.6429 -0.3866
   42HFI     F1  985   1.516   2.184   0.587 -0.0500 -0.1438  0.1159
   42HFI     F2  986   1.670   2.338   0.632  0.5560  0.2368 -0.1115
   42HFI     F3  987   1.716   2.126   0.628  0.2132  0.5334 -0.3508
   42HFI     C3  988   1.646   2.120   0.325 -0.5164 -0.2218  0.2174
   42HFI     F4  989   1.703   2.137   0.203 -0.1401 -0.0707  0.2164
   42HFI     F5  990   1.515   2.126   0.307  0.1078 -0.2459 -0.1937
   42HFI     F6  991   1.688   1.993   0.367 -0.0960  0.0341  0.0299
   42HFI     H1  992   1.874   2.235   0.344 -0.6935 -1.4228  0.3094
   42HFI     H2  993   1.617   2.313   0.380 -2.9012 -1.9196  0.8439
   43HFI     O1  994   2.734   1.171   1.038  0.1835  0.1581  0.5177
   43HFI     C1  995   2.597   1.185   0.992 -0.7372  0.1813  0.2889
   43HFI     C2  996   2.486   1.134   1.086 -0.2908  0.3817  0.4820
   43HFI     F1  997   2.488   1.203   1.208 -0.2244  0.1444 -0.3228
   43HFI     F2  998   2.507   1.004   1.119  0.1239  0.4000  0.3666
   43HFI     F3  999   2.365   1.152   1.039 -0.1457 -0.0403 -0.1958
   43HFI     C3 1000   2.577   1.131   0.851 -0.0570 -0.1251  0.6602
   43HFI     F4 1001   2.457   1.163   0.794  0.0180  0.2810 -0.0844
   43HFI     F5 1002   2.592   0.992   0.845  0.1938  0.5479  0.1357
   43HFI     F6 1003   2.677   1.178   0.768 -0.3726 -0.3841 -0.1768
   43HFI     H1 1004   2.745   1.155   1.133  3.9102 -0.1894  0.0922
   43HFI     H2 1005   2.588   1.294   0.985  1.5894  0.4966  1.7467
   44HFI     O1 1006   3.263   2.202   1.165  0.2209 -0.1441 -0.2376
   44HFI     C1 1007   3.283   2.186   1.022 -0.4617 -0.1348 -0.6476
   44HFI     C2 1008   3.414   2.256   0.981 -0.1090 -0.2385 -0.3608
   44HFI     F1 1009   3.514   2.234   1.063 -0.1249  0.3201 -0.1156
   44HFI     F2 1010   3.402   2.388   0.966  0.2475 -0.2222 -0.2658
   44HFI     F3 1011   3.447   2.205   0.863 -0.4929 -0.0491  0.0017
   44HFI     C3 1012   3.159   2.223   0.937  0.5110  0.8019 -0.3120
   44HFI     F4 1013   3.128   2.354   0.945 -0.1126  0.0619  0.0863
   44HFI     F5 1014   3.048   2.150   0.985 -0.6297 -0.0849  0.3857
   44HFI     F6 1015   3.173   2.190   0.807  0.4296  0.3985  0.1914
   44HFI     H1 1016   3.348   2.187   1.211  0.7267  0.9476 -0.7833
   44HFI     H2 1017   3.301   2.079   1.013 -0.4638 -0.1257 -0.7633
   45HFI     O1 1018   1.934   2.711   1.538 -0.2821  0.0794  0.2204
   45HFI     C1 1019   2.047   2.791   1.500 -0.4488 -0.2659 -0.0260
   45HFI     C2 1020   2.019   2.943   1.484 -0.0696 -0.2963 -1.0618
   45HFI     F1 1021   2.129   3.014   1.499  0.2034  0.5663 -0.5908
   45HFI     F2 1022   1.933   2.978   1.582  0.0524 -0.0939  0.0282
   45HFI     F3 1023   1.968   2.973   1.365  0.3041  0.2603 -0.7765
   45HFI     C3 1024   2.103   2.725   1.365 -0.2460  0.4206 -0.3994
   45HFI     F4 1025   2.159   2.605   1.382 -0.2056  0.3446  0.4367
   45HFI     F5 1026   2.195   2.806   1.318 -0.4336  0.4425 -0.4426
   45HFI     F6 1027   2.001   2.713   1.268  0.5437  0.1977 -0.1506
   45HFI     H1 1028   1.964   2.641   1.597  0.3866 -1.0828 -1.4534
   45HFI     H2 1029   2.123   2.778   1.577  0.6922 -0.8473 -1.2203
   46HFI     O1 1030   1.042   1.546   3.217 -0.4160 -0.2972 -0.8166
   46HFI     C1 1031   0.913   1.543   3.287  0.2871  0.5113 -0.5024
   46HFI     C2 1032   0.940   1.517   3.435 -0.3555 -0.1616  0.2427
   46HFI     F1 1033   1.048   1.585   3.484  0.3226 -0.3012 -0.6245
   46HFI     F2 1034   0.959   1.387   3.460  0.6267  0.3825  0.1409
   46HFI     F3 1035   0.837   1.556   3.513 -0.0660 -0.9320 -0.5047
   46HFI     C3 1036   0.814   1.438   3.220  0.4978  0.3543 -0.5461
   46HFI     F4 1037   0.697   1.418   3.288 -0.8743  0.0523  0.1753
   46HFI     F5 1038   0.871   1.316   3.215  0.1956  0.0892 -0.5707
   46HFI     F6 1039   0.779   1.459   3.096  0.4715  0.0893  0.0847
   46HFI     H1 1040   1.108   1.563   3.286 -0.6075 -0.0258 -0.7008
   46HFI     H2 1041   0.858   1.638   3.283 -0.0288  0.3967  0.9374
   47HFI     O1 1042   1.477   2.396   2.626 -0.1234 -0.0901 -0.1820
   47HFI     C1 1043   1.544   2.278   2.677 -0.4120  0.1242 -0.5104
   47HFI     C2 1044   1.600   2.297   2.821 -0.1184 -0.1162  0.3474
   47HFI     F1 1045   1.493   2.303   2.907 -0.6181  0.3145 -0.1968
   47HFI     F2 1046   1.665   2.408   2.838 -0.0768 -0.0134  0.1555
   47HFI     F3 1047   1.672   2.190   2.862  0.1837  0.1101 -0.2865
   47HFI     C3 1048   1.657   2.244   2.574  0.3053 -0.1326 -0.4703
   47HFI     F4 1049   1.612   2.235   2.445  0.0338 -0.2274  0.5278
   47HFI     F5 1050   1.708   2.124   2.604  0.4575  0.5039 -0.1823
   47HFI     F6 1051   1.759   2.334   2.570 -0.3516  0.1500 -0.3978
   47HFI     H1 1052   1.460   2.445   2.709 -0.8323  1.7209 -1.3598
   47HFI     H2 1053   1.473   2.194   2.673  2.0302 -2.1031  1.3853
   48HFI     O1 1054   0.718   1.715   1.371 -0.0213 -0.3204  0.5359
   48HFI     C1 1055   0.606   1.722   1.467  0.2908 -0.2902  0.4725
   48HFI     C2 1056   0.473   1.660   1.417  0.2080  0.3281  0.0719
   48HFI     F1 1057   0.409   1.737   1.327 -0.0180  0.0189  0.0151
   48HFI     F2 1058   0.393   1.637   1.526  0.4100  0.3122 -0.2117
   48HFI     F3 1059   0.500   1.537   1.353 -0.3661 -0.0368 -0.1623
   48HFI     C3 1060   0.585   1.869   1.515 -0.4583  0.1093 -0.4484
   48HFI     F4 1061   0.470   1.884   1.587 -0.1840 -0.6975  0.5426
   48HFI     F5 1062   0.593   1.950   1.413  0.2713  0.1241 -0.1214
   48HFI     F6 1063   0.686   1.902   1.599  0.0631  0.1024 -0.6143
   48HFI     H1 1064   0.743   1.804   1.341  1.0803 -0.8235 -0.0671
   48HFI     H2 1065   0.635   1.662   1.554  1.1891 -0.5975 -0.0337
   49HFI     O1 1066   1.393   3.059   1.466  0.9230 -0.0770 -0.1468
   49HFI     C1 1067   1.351   2.930   1.519 -0.4018  0.2146 -0.1320
   49HFI     C2 1068   1.457   2.822   1.486 -0.2263  0.4766  0.5710
   49HFI     F1 1069   1.582   2.860   1.522 -0.3205 -0.5236 -0.3841
   49HFI     F2 1070   1.460   2.790   1.354 -0.3935  0.2347 -0.2556
   49HFI     F3 1071   1.427   2.709   1.559  0.0658  0.1404 -0.3368
   49HFI     C3 1072   1.204   2.889   1.483 -0.0643  0.0141  0.2828
   49HFI     F4 1073   1.155   2.801   1.573 -0.1430 -0.4215 -0.1687
   49HFI     F5 1074   1.194   2.835   1.362  0.0660 -0.0018  0.0833
   49HFI     F6 1075   1.117   2.992   1.486  0.1599  0.2039  0.5075
   49HFI     H1 1076   1.489   3.069   1.477  1.1550 -0.5904 -1.6026
   49HFI     H2 1077   1.363   2.941   1.628 -0.2510  1.6835 -0.2916
   50HFI     O1 1078   3.371   0.301   0.968 -0.3283  0.6515 -0.0843
   50HFI     C1 1079   3.309   0.194   1.035 -0.0996 -0.0791 -0.3293
   50HFI     C2 1080   3.289   0.223   1.188  0.5858  0.0692  0.0058
   50HFI     F1 1081   3.202   0.134   1.243  0.2730 -0.2210 -0.5530
   50HFI     F2 1082   3.237   0.344   1.206 -0.2458  0.5721  0.0319
   50HFI     F3 1083   3.402   0.223   1.254  0.2173 -0.1110  0.1557
   50HFI     C3 1084   3.379   0.059   1.000 -0.0159 -0.2412  0.2099
   50HFI     F4 1085   3.507   0.076   1.020 -0.0962  0.2270  0.0305
   50HFI     F5 1086   3.355   0.023   0.871  0.5192  0.4455 -0.1394
   50HFI     F6 1087   3.338  -0.040   1.081 -0.2617 -0.9304 -0.1942
   50HFI     H1 1088   3.450   0.328   1.018 -0.2744  0.9157 -0.3153
   50HFI     H2 1089   3.208   0.190   0.991 -0.2690 -0.0291  0.0508
   51HFI     O1 1090   1.439   0.442   3.795 -0.8938 -0.9237 -0.4761
   51HFI     C1 1091   1.564   0.370   3.764  0.5405  0.6844 -0.1981
   51HFI     C2 1092   1.599   0.257   3.874 -0.1647 -0.9898  0.7045
   51HFI     F1 1093   1.701   0.178   3.828  0.0209  0.2659  0.0774
   51HFI     F2 1094   1.490   0.186   3.902  0.1649  0.1756  0.3945
   51HFI     F3 1095   1.639   0.312   3.990  0.1319 -0.1959  0.2552
   51HFI     C3 1096   1.688   0.459   3.737  0.2769 -0.0860  0.1088
   51HFI     F4 1097   1.674   0.547   3.634  0.2759  0.3961 -0.0549
   51HFI     F5 1098   1.803   0.394   3.700  0.0407  0.1174 -0.5233
   51HFI     F6 1099   1.722   0.538   3.844 -0.4180  0.1472 -0.0958
   51HFI     H1 1100   1.370   0.405   3.737  0.3932 -1.0351 -1.9802
   51HFI     H2 1101   1.547   0.316   3.671 -2.4214  0.6543  0.3079
   52HFI     O1 1102   2.170   2.252   0.313 -0.0328 -0.2254  0.1968
   52HFI     C1 1103   2.204   2.329   0.441 -0.1570  0.0813  0.3185
   52HFI     C2 1104   2.230   2.476   0.409  0.1140  0.0151  0.3697
   52HFI     F1 1105   2.332   2.491   0.326 -0.3366 -0.4192 -0.0779
   52HFI     F2 1106   2.257   2.547   0.525 -0.1838  0.6118 -0.0909
   52HFI     F3 1107   2.122   2.530   0.342 -0.6977  0.0148  0.2787
   52HFI     C3 1108   2.319   2.269   0.525  0.3521  0.0701 -0.5868
   52HFI     F4 1109   2.276   2.160   0.580 -0.3104  0.5962 -0.4013
   52HFI     F5 1110   2.365   2.346   0.626 -0.2514  0.3561  0.0349
   52HFI     F6 1111   2.425   2.237   0.446  0.0605 -0.2801 -0.5737
   52HFI     H1 1112   2.206   2.162   0.314  0.0704 -0.2260 -1.5312
   52HFI     H2 1113   2.114   2.323   0.502 -0.8125  1.1526 -0.5297
   53HFI     O1 1114   2.081   1.282   0.557 -0.1393  0.1302 -0.1598
   53HFI     C1 1115   1.976   1.183   0.524 -0.1966  0.2503  0.4646
   53HFI     C2 1116   1.881   1.146   0.641 -0.1590 -0.1252  0.9620
   53HFI     F1 1117   1.789   1.048   0.613  0.3516  0.4076 -0.2858
   53HFI     F2 1118   1.817   1.256   0.684  0.1057 -0.4241 -0.3749
   53HFI     F3 1119   1.949   1.097   0.745 -0.1127  0.1931  0.1994
   53HFI     C3 1120   2.046   1.058   0.457 -0.0864  0.1464 -0.8618
   53HFI     F4 1121   2.126   1.092   0.358 -0.1642 -0.4434 -0.6739
   53HFI     F5 1122   1.958   0.965   0.414 -0.5201 -0.5009  0.3146
   53HFI     F6 1123   2.118   1.000   0.561  0.2081  0.4267 -0.3219
   53HFI     H1 1124   2.159   1.237   0.593 -0.7942 -2.1437 -1.4478
   53HFI     H2 1125   1.904   1.229   0.455 -1.7453 -0.5905  1.4937
   54HFI     O1 1126   3.114   2.044   0.313 -0.0715  0.1748 -0.2393
   54HFI     C1 1127   3.210   2.003   0.411 -0.1649 -0.6066  0.0326
   54HFI     C2 1128   3.131   1.913   0.512  0.3845 -0.0370 -0.4122
   54HFI     F1 1129   3.213   1.864   0.603  0.5815  0.1591 -0.1613
   54HFI     F2 1130   3.062   1.814   0.446  0.3060  0.3139 -0.3570
   54HFI     F3 1131   3.042   1.986   0.579 -0.1393 -0.4294 -0.2791
   54HFI     C3 1132   3.284   2.120   0.479  0.4241  0.1390 -0.6784
   54HFI     F4 1133   3.331   2.194   0.382  0.3896 -0.1433 -0.0280
   54HFI     F5 1134   3.380   2.086   0.565 -0.0876 -0.4386  0.2627
   54HFI     F6 1135   3.207   2.210   0.545  0.2097 -0.3624  0.0144
   54HFI     H1 1136   3.066   2.111   0.363  0.5798  0.2410  0.3087
   54HFI     H2 1137   3.295   1.944   0.376 -0.3245 -0.2738 -0.9265
   55HFI     O1 1138   1.827   1.108   1.518 -0.3768  0.4472 -0.8013
   55HFI     C1 1139   1.948   1.104   1.436 -0.5424  0.2958 -0.9254
   55HFI     C2 1140   1.921   1.063   1.286 -0.1164  0.0808  0.0601
   55HFI     F1 1141   2.025   1.084   1.194 -0.0658 -0.2321  0.0759
   55HFI     F2 1142   1.806   1.120   1.243 -0.2597  0.5667 -0.4854
   55HFI     F3 1143   1.898   0.927   1.284 -0.2820  0.4354 -0.0305
   55HFI     C3 1144   2.068   1.025   1.498 -0.3404  0.0957 -0.1339
   55HFI     F4 1145   2.042   0.897   1.521 -0.2279 -0.1177  0.1039
   55HFI     F5 1146   2.110   1.080   1.612  0.1079 -0.5687 -0.4056
   55HFI     F6 1147   2.170   1.030   1.420  0.7323  0.4211 -0.1752
   55HFI     H1 1148   1.785   1.020   1.516  0.7919 -0.3389  3.3393
   55HFI     H2 1149   1.992   1.204   1.421  0.2980 -0.1950 -1.7645
   56HFI     O1 1150   2.996   3.212   3.520  0.1756  0.1650  0.1269
   56HFI     C1 1151   3.036   3.241   3.381  0.2914 -0.1994  0.8867
   56HFI     C2 1152   2.915   3.217   3.290  0.1860  0.0071  0.3278
   56HFI     F1 1153   2.933   3.272   3.170 -0.1100 -0.6924  0.3664
   56HFI     F2 1154   2.802   3.275   3.333  0.1893  0.2271  0.0044
   56HFI     F3 1155   2.888   3.092   3.266 -0.1539  0.7006  0.1649
   56HFI     C3 1156   3.174   3.173   3.330  0.7398 -0.5047 -0.3371
   56HFI     F4 1157   3.276   3.201   3.412 -0.1562  0.7076 -0.2848
   56HFI     F5 1158   3.209   3.224   3.214  0.3229 -0.7049 -0.2412
   56HFI     F6 1159   3.163   3.041   3.316  0.1000 -0.6249  0.4368
   56HFI     H1 1160   3.077   3.202   3.574  0.9929  0.5977 -0.9909
   56HFI     H2 1161   3.049   3.348   3.358  0.2581 -0.4870 -0.5415
   57HFI     O1 1162   1.991   3.073   3.277 -0.1889  0.3548  0.0993
   57HFI     C1 1163   2.028   3.116   3.407 -0.2504  0.5943  0.4857
   57HFI     C2 1164   2.022   3.008   3.511  0.8927 -1.0307  0.0045
   57HFI     F1 1165   2.090   2.890   3.471  0.1588 -0.0808  0.0941
   57HFI     F2 1166   1.895   2.968   3.528  0.2888 -0.4497 -0.6288
   57HFI     F3 1167   2.065   3.045   3.632 -0.1245 -0.0070  0.3665
   57HFI     C3 1168   1.946   3.240   3.444 -0.8579  0.0806  0.2310
   57HFI     F4 1169   1.817   3.229   3.409 -0.0678 -0.6254 -0.3229
   57HFI     F5 1170   1.990   3.344   3.359  0.5816  0.0486  0.2132
   57HFI     F6 1171   1.950   3.283   3.573  0.5409 -0.0961  0.1890
   57HFI     H1 1172   2.062   3.113   3.224 -0.5975  0.1194 -0.6222
   57HFI     H2 1173   2.133   3.148   3.410 -0.0691  0.1493 -0.9532
   58HFI     O1 1174   3.312   2.850   0.805  0.0956 -0.3033 -0.1796
   58HFI     C1 1175   3.211   2.838   0.909  0.6908 -0.0522  0.1003
   58HFI     C2 1176   3.104   2.727   0.874  0.8527  0.7475 -0.3778
   58HFI     F1 1177   3.151   2.604   0.841  0.1531 -0.1434  0.3508
   58HFI     F2 1178   3.034   2.767   0.762  0.0319  0.1880 -0.1523
   58HFI     F3 1179   3.014   2.708   0.977 -0.2085  0.4650 -0.7788
   58HFI     C3 1180   3.146   2.973   0.966 -0.3328 -0.1761 -0.1282
   58HFI     F4 1181   3.053   3.026   0.881 -0.2438  0.4512  0.0896
   58HFI     F5 1182   3.239   3.071   0.973 -0.0539  0.4573  0.4146
   58HFI     F6 1183   3.089   2.955   1.092  0.1230 -0.0553 -0.3297
   58HFI     H1 1184   3.271   2.883   0.723 -0.1370 -1.0950 -0.3850
   58HFI     H2 1185   3.263   2.807   1.001 -0.9359 -1.1959  0.6758
   59HFI     O1 1186   1.745   2.481   1.396 -0.2471  0.4300 -0.2613
   59HFI     C1 1187   1.722   2.349   1.450  0.0925  0.2922  0.4047
   59HFI     C2 1188   1.782   2.235   1.361 -0.3849 -0.4178  0.4574
   59HFI     F1 1189   1.772   2.114   1.420 -0.1263 -0.0442  0.0456
   59HFI     F2 1190   1.911   2.257   1.332  0.8517 -0.0583 -0.1112
   59HFI     F3 1191   1.722   2.236   1.237  0.6905 -0.5651  0.3153
   59HFI     C3 1192   1.579   2.330   1.487  0.4351  0.3427  0.0945
   59HFI     F4 1193   1.496   2.330   1.384  0.5132 -0.3572 -0.3667
   59HFI     F5 1194   1.545   2.443   1.555  0.3745  0.0155 -0.3333
   59HFI     F6 1195   1.564   2.223   1.567 -0.4102  0.2254 -0.8518
   59HFI     H1 1196   1.693   2.493   1.315  1.5831 -0.5188 -1.5987
   59HFI     H2 1197   1.778   2.347   1.545  1.7556  3.3003 -0.4325
   60HFI     O1 1198   3.202   3.157   2.664  0.4832  0.4353 -0.2551
   60HFI     C1 1199   3.270   3.268   2.729 -0.0125  0.2040  0.9992
   60HFI     C2 1200   3.399   3.217   2.798 -0.0045 -0.2939  0.2441
   60HFI     F1 1201   3.477   3.146   2.710 -0.0228  0.0356  0.0673
   60HFI     F2 1202   3.380   3.139   2.908  0.2807  0.4122 -0.7606
   60HFI     F3 1203   3.478   3.320   2.840 -0.3954  0.0177  0.0204
   60HFI     C3 1204   3.173   3.351   2.816 -0.5068  0.1096  0.9792
   60HFI     F4 1205   3.131   3.293   2.940  0.2988  0.0832 -0.2924
   60HFI     F5 1206   3.060   3.374   2.743  0.1558 -0.1890  0.0263
   60HFI     F6 1207   3.210   3.474   2.841 -0.4268  0.1817 -0.3704
   60HFI     H1 1208   3.197   3.083   2.727  3.1949  0.8013  0.4408
   60HFI     H2 1209   3.303   3.326   2.642  0.2608 -1.7852 -0.2587
   61HFI     O1 1210   2.192   2.236   1.292  0.5395  0.5518  0.7966
   61HFI     C1 1211   2.257   2.171   1.407 -0.0604 -0.2726 -0.6801
   61HFI     C2 1212   2.160   2.090   1.506  1.7464  0.0343 -0.1960
   61HFI     F1 1213   2.082   2.172   1.579 -0.3025 -0.1278  0.0279
   61HFI     F2 1214   2.235   2.014   1.590 -0.4046  0.3371  0.0607
   61HFI     F3 1215   2.080   2.008   1.433 -0.3124  0.1423  0.1989
   61HFI     C3 1216   2.338   2.279   1.490 -0.1296 -0.4205  0.0869
   61HFI     F4 1217   2.420   2.228   1.591 -0.5629  0.3272  0.3303
   61HFI     F5 1218   2.264   2.370   1.559 -0.0292 -0.2920  0.3311
   61HFI     F6 1219   2.407   2.344   1.403 -0.1606 -0.4825 -0.0498
   61HFI     H1 1220   2.096   2.224   1.299  0.1897  2.0900 -0.9676
   61HFI     H2 1221   2.332   2.103   1.366 -0.6928 -0.8913 -0.8048
   62HFI     O1 1222   0.517   0.940   3.190 -0.2039  0.4923  0.4828
   62HFI     C1 1223   0.615   0.945   3.298 -0.3629 -0.7696 -0.3475
   62HFI     C2 1224   0.688   0.808   3.330  0.5993  0.1957 -0.4106
   62HFI     F1 1225   0.604   0.719   3.387  0.3326 -0.0815 -0.2161
   62HFI     F2 1226   0.800   0.828   3.399 -0.2727  0.0621 -0.0248
   62HFI     F3 1227   0.733   0.754   3.211  0.5772  0.8922 -0.2722
   62HFI     C3 1228   0.560   1.012   3.429  0.5719  0.2217  0.8894
   62HFI     F4 1229   0.524   1.139   3.416 -0.4998  0.1666 -0.7560
   62HFI     F5 1230   0.653   1.009   3.529  0.3087 -0.5797 -0.0584
   62HFI     F6 1231   0.458   0.948   3.482 -0.0784 -0.5173  0.4174
   62HFI     H1 1232   0.442   0.993   3.222 -2.0684 -1.8901  0.2583
   62HFI     H2 1233   0.706   1.003   3.274 -1.8754  1.1743 -1.5299
   63HFI     O1 1234   0.073   2.977   3.478  0.4242 -0.6625 -0.1754
   63HFI     C1 1235   0.034   2.894   3.591  0.9585  0.0458  0.4901
   63HFI     C2 1236  -0.045   2.970   3.699  0.0807  0.6175 -0.3820
   63HFI     F1 1237  -0.153   3.033   3.646  0.6680 -0.0214  0.0191
   63HFI     F2 1238   0.029   3.073   3.752 -0.2037 -0.3092  0.0502
   63HFI     F3 1239  -0.089   2.892   3.804  0.2051  0.5798 -0.3035
   63HFI     C3 1240   0.145   2.801   3.635  0.2556 -0.2375 -0.0881
   63HFI     F4 1241   0.230   2.858   3.725 -0.1082  0.2454 -0.0820
   63HFI     F5 1242   0.212   2.755   3.528 -0.2368  0.1076  0.5728
   63HFI     F6 1243   0.100   2.686   3.693 -0.5856  0.0846  0.1289
   63HFI     H1 1244   0.071   2.924   3.397  3.0530 -1.7760  0.4369
   63HFI     H2 1245  -0.041   2.826   3.548  1.8290 -0.7064  0.1632
   64HFI     O1 1246   1.224   2.864   0.567  0.6743  0.1329  0.1111
   64HFI     C1 1247   1.265   2.956   0.676  0.3119 -0.1468  0.9322
   64HFI     C2 1248   1.205   2.933   0.817 -0.2569  0.7985  0.3153
   64HFI     F1 1249   1.073   2.907   0.808  0.2953 -0.4638  0.3059
   64HFI     F2 1250   1.229   3.037   0.907  0.0700  0.0287 -0.0876
   64HFI     F3 1251   1.253   2.818   0.873 -0.5137 -0.2196  0.1053
   64HFI     C3 1252   1.258   3.103   0.618  0.0072  0.4409  0.1687
   64HFI     F4 1253   1.322   3.192   0.693 -0.2849 -0.2644 -0.5599
   64HFI     F5 1254   1.128   3.138   0.595  0.4571  0.0869 -0.4030
   64HFI     F6 1255   1.324   3.095   0.498  0.3053 -0.5703  0.7195
   64HFI     H1 1256   1.129   2.876   0.554  0.8498  1.0623 -0.3782
   64HFI     H2 1257   1.369   2.936   0.705  0.0619 -1.0823  1.2020
   65HFI     O1 1258   1.323   0.385   1.355 -0.0024 -0.4531  0.0018
   65HFI     C1 1259   1.183   0.388   1.391  0.3343 -0.3884  0.5782
   65HFI     C2 1260   1.084   0.391   1.265  0.1030  0.0873  0.6332
   65HFI     F1 1261   1.099   0.279   1.188  0.0062  0.2093  0.8649
   65HFI     F2 1262   1.121   0.498   1.189 -0.6088 -0.1162  0.3921
   65HFI     F3 1263   0.955   0.400   1.298 -0.0365  0.0026 -0.4643
   65HFI     C3 1264   1.166   0.500   1.495  0.0131 -0.4847  0.2702
   65HFI     F4 1265   1.192   0.625   1.443  0.0073  0.5072 -0.4014
   65HFI     F5 1266   1.258   0.471   1.590 -0.4803  0.5998 -0.5539
   65HFI     F6 1267   1.040   0.497   1.546  0.1692  0.1693 -0.3555
   65HFI     H1 1268   1.364   0.467   1.388 -1.4263  0.6007 -0.8002
   65HFI     H2 1269   1.154   0.299   1.449 -1.3442  0.5144  1.1646
   66HFI     O1 1270   0.696   3.259   1.191  0.0530 -0.4405  0.2002
   66HFI     C1 1271   0.777   3.268   1.070  0.1135  0.0646  0.0248
   66HFI     C2 1272   0.690   3.230   0.943 -0.0987 -0.1049  0.3007
   66HFI     F1 1273   0.669   3.100   0.937 -0.8457 -0.1499 -0.3044
   66HFI     F2 1274   0.755   3.276   0.833 -0.0787 -0.2134 -0.3755
   66HFI     F3 1275   0.567   3.283   0.944  0.1811 -0.3708  0.0304
   66HFI     C3 1276   0.914   3.188   1.078 -0.1441  0.0549 -0.3990
   66HFI     F4 1277   0.910   3.057   1.101 -0.0600  0.5849  0.3405
   66HFI     F5 1278   0.977   3.235   1.185  0.0660 -0.0191  0.2933
   66HFI     F6 1279   0.987   3.205   0.969 -0.0196  0.6404 -0.2295
   66HFI     H1 1280   0.603   3.275   1.168 -1.0986 -2.7210  2.9340
   66HFI     H2 1281   0.803   3.373   1.049  0.7929  0.2427  1.6549
   67HFI     O1 1282   3.144   2.362   2.346  0.5251 -0.4847  0.2144
   67HFI     C1 1283   3.254   2.416   2.261 -0.0950 -0.2552  0.3926
   67HFI     C2 1284   3.394   2.368   2.309  0.4341 -0.7794 -0.2243
   67HFI     F1 1285   3.428   2.426   2.424  0.1839 -0.6081 -0.3410
   67HFI     F2 1286   3.486   2.402   2.216  0.1098  0.7847  0.1678
   67HFI     F3 1287   3.398   2.232   2.327 -0.1025 -0.6347 -0.4596
   67HFI     C3 1288   3.251   2.574   2.260  0.1256 -0.1141 -0.2595
   67HFI     F4 1289   3.368   2.626   2.217  0.4370 -0.0712  0.0623
   67HFI     F5 1290   3.231   2.628   2.382  0.1557  0.5565  0.0718
   67HFI     F6 1291   3.149   2.616   2.181 -0.3644 -0.1343  0.2095
   67HFI     H1 1292   3.065   2.416   2.326 -0.5375 -1.0486  2.6544
   67HFI     H2 1293   3.248   2.378   2.158 -1.1800  0.1165  0.3130
   68HFI     O1 1294   2.763   1.088   3.044  0.0808  0.4661 -0.4636
   68HFI     C1 1295   2.815   0.988   2.951  0.0726  0.0593 -0.3279
   68HFI     C2 1296   2.968   0.993   2.949 -0.6213  0.4591 -0.0414
   68HFI     F1 1297   3.015   0.946   3.067  0.1393 -0.6809 -0.3411
   68HFI     F2 1298   3.018   1.118   2.934 -0.1555 -0.3265 -0.1984
   68HFI     F3 1299   3.024   0.918   2.851  0.1268  0.2136 -0.0614
   68HFI     C3 1300   2.760   1.003   2.806 -0.0199  0.8178 -0.8800
   68HFI     F4 1301   2.794   0.898   2.736 -0.0472 -0.0544 -0.0396
   68HFI     F5 1302   2.810   1.106   2.736 -0.2826  0.1197 -0.3164
   68HFI     F6 1303   2.618   0.995   2.802  0.1177 -0.3966  0.3788
   68HFI     H1 1304   2.695   1.141   3.000  2.2234  2.3338 -1.6577
   68HFI     H2 1305   2.789   0.886   2.983 -1.7515 -0.8208 -4.3361
   69HFI     O1 1306   1.202   2.183   3.432 -0.2462  0.4885 -0.8331
   69HFI     C1 1307   1.291   2.065   3.429 -0.2077 -0.0491 -0.0014
   69HFI     C2 1308   1.368   2.048   3.291  0.1220  0.2989 -0.2416
   69HFI     F1 1309   1.477   1.970   3.310 -0.4422 -0.3964 -0.2434
   69HFI     F2 1310   1.422   2.167   3.257 -0.0970  0.4731 -0.3782
   69HFI     F3 1311   1.292   2.012   3.195 -0.2745  0.3501  0.3346
   69HFI     C3 1312   1.213   1.940   3.475 -0.5899  0.9370 -0.9901
   69HFI     F4 1313   1.103   1.921   3.399 -0.3702  0.3431  0.1925
   69HFI     F5 1314   1.177   1.959   3.599 -0.4199 -0.0044 -0.3412
   69HFI     F6 1315   1.289   1.830   3.465  0.3348  0.4700  0.3576
   69HFI     H1 1316   1.222   2.229   3.349  1.6644 -1.7371 -1.6666
   69HFI     H2 1317   1.366   2.091   3.504 -0.4273  0.4367  0.0516
   70HFI     O1 1318   3.273   0.713   0.184 -0.2180  0.7134  0.4818
   70HFI     C1 1319   3.258   0.643   0.060  0.0431 -0.4714 -0.2359
   70HFI     C2 1320   3.115   0.628   0.007 -0.4164 -0.5720  0.4525
   70HFI     F1 1321   3.096   0.556  -0.110 -0.4144 -0.1882  0.0885
   70HFI     F2 1322   3.040   0.744  -0.005 -0.3879 -0.3473 -1.0325
   70HFI     F3 1323   3.043   0.560   0.097  0.5440  0.0941  0.3403
   70HFI     C3 1324   3.333   0.505   0.070  0.5701  0.4549  0.1687
   70HFI     F4 1325   3.265   0.405   0.131 -0.7441 -0.4785  0.3062
   70HFI     F5 1326   3.457   0.510   0.130 -0.5234 -0.2045 -0.0502
   70HFI     F6 1327   3.358   0.469  -0.056  0.3591 -0.3038  0.3605
   70HFI     H1 1328   3.208   0.679   0.248 -0.8489 -3.9095 -2.4151
   70HFI     H2 1329   3.308   0.699  -0.020  1.2681  0.9304  1.4659
   71HFI     O1 1330   1.118   1.949   2.752  0.4650  0.2999  0.2237
   71HFI     C1 1331   1.024   2.063   2.724  0.1363 -0.1066  0.6820
   71HFI     C2 1332   1.068   2.190   2.803 -0.1978 -0.9600 -0.1055
   71HFI     F1 1333   1.188   2.236   2.766  0.1233 -0.4242  0.7107
   71HFI     F2 1334   1.075   2.154   2.936 -0.1539  0.0560 -0.2543
   71HFI     F3 1335   0.976   2.290   2.791  0.0288  0.4536 -0.0424
   71HFI     C3 1336   0.871   2.026   2.747  0.0265  0.1678 -1.0852
   71HFI     F4 1337   0.830   2.021   2.877 -0.7771 -0.5183 -0.4465
   71HFI     F5 1338   0.846   1.907   2.684  0.7275 -0.0188  0.0141
   71HFI     F6 1339   0.801   2.127   2.693  0.2446 -0.1315  0.6294
   71HFI     H1 1340   1.108   1.890   2.675 -1.8065  1.6350 -0.5624
   71HFI     H2 1341   1.029   2.093   2.619  0.0837  2.4263  1.3616
   72HFI     O1 1342   1.567   3.433   0.631  0.1860 -0.3649  0.3230
   72HFI     C1 1343   1.695   3.400   0.564  0.2549 -1.0179  0.2874
   72HFI     C2 1344   1.684   3.392   0.411  0.4974 -0.0682  0.0155
   72HFI     F1 1345   1.590   3.305   0.382  0.5477  0.9898  0.4292
   72HFI     F2 1346   1.805   3.350   0.363  0.1323 -0.0401 -0.0598
   72HFI     F3 1347   1.651   3.510   0.362  0.1540 -0.1897  0.4775
   72HFI     C3 1348   1.762   3.273   0.622  0.0645 -0.2140  0.0252
   72HFI     F4 1349   1.743   3.161   0.549 -0.0387 -0.2405 -0.3025
   72HFI     F5 1350   1.722   3.249   0.745 -0.4131  0.5778 -0.3300
   72HFI     F6 1351   1.897   3.285   0.621  0.3255 -0.0337 -0.1483
   72HFI     H1 1352   1.576   3.408   0.724  2.5400  0.6374  0.4150
   72HFI     H2 1353   1.769   3.478   0.585 -0.2482 -0.6107  0.5506
   73HFI     O1 1354   1.651   1.013   2.923 -0.1640  0.7152  0.0190
   73HFI     C1 1355   1.575   1.123   2.887 -0.1191 -0.9940  0.7821
   73HFI     C2 1356   1.461   1.080   2.785 -0.8275 -0.3607 -0.0902
   73HFI     F1 1357   1.518   1.061   2.664 -0.1159  0.1937 -0.0961
   73HFI     F2 1358   1.362   1.174   2.768  0.1265  0.0634 -0.2625
   73HFI     F3 1359   1.403   0.966   2.825  0.3458  0.5131  0.0409
   73HFI     C3 1360   1.661   1.242   2.843  0.0933 -0.0865 -0.3592
   73HFI     F4 1361   1.770   1.267   2.916  0.2781 -0.2711 -0.1228
   73HFI     F5 1362   1.577   1.352   2.851  0.3199  0.5449  0.6736
   73HFI     F6 1363   1.695   1.233   2.710 -0.4334 -0.4257  0.1142
   73HFI     H1 1364   1.723   1.057   2.970  1.8419  1.1494 -3.2745
   73HFI     H2 1365   1.519   1.161   2.972 -1.8808  0.5847 -1.0379
   74HFI     O1 1366   0.399   0.665   2.484  0.6764 -0.0469  0.3013
   74HFI     C1 1367   0.286   0.682   2.391 -0.2837  0.2840 -0.2347
   74HFI     C2 1368   0.263   0.548   2.309 -0.1255 -0.3123 -0.5311
   74HFI     F1 1369   0.160   0.557   2.221  0.2318  0.1008 -0.4561
   74HFI     F2 1370   0.237   0.446   2.400  0.2162  0.2284  0.4567
   74HFI     F3 1371   0.368   0.516   2.236  0.3915 -0.3010  0.1088
   74HFI     C3 1372   0.323   0.804   2.302 -0.5579 -0.3585  0.2511
   74HFI     F4 1373   0.443   0.787   2.238 -0.3582 -0.0597  0.0995
   74HFI     F5 1374   0.324   0.914   2.384  0.4943  0.4375  0.1650
   74HFI     F6 1375   0.229   0.835   2.204 -0.2263  0.1539  0.2501
   74HFI     H1 1376   0.449   0.584   2.466  1.7763  0.5966  0.4345
   74HFI     H2 1377   0.202   0.719   2.450  0.6990  1.2530  0.5791
   75HFI     O1 1378   3.195   3.240   1.320  0.1474  0.0013 -0.1451
   75HFI     C1 1379   3.093   3.197   1.413  0.0604  1.0807 -0.8458
   75HFI     C2 1380   3.045   3.329   1.499  0.1464  0.3956  0.7567
   75HFI     F1 1381   2.980   3.416   1.423 -0.3208 -0.4496 -0.3813
   75HFI     F2 1382   3.155   3.381   1.555 -0.5475 -0.0836 -0.0425
   75HFI     F3 1383   2.951   3.301   1.592 -0.2728 -0.2734 -0.4610
   75HFI     C3 1384   3.147   3.079   1.499  0.1785 -0.0465  0.2314
   75HFI     F4 1385   3.168   2.969   1.418 -0.1674  0.0395 -0.1318
   75HFI     F5 1386   3.064   3.044   1.592  0.2669  0.3146 -0.2032
   75HFI     F6 1387   3.261   3.116   1.557  0.3106  0.1200 -0.5399
   75HFI     H1 1388   3.259   3.282   1.380 -2.8522  2.1356  1.7519
   75HFI     H2 1389   3.004   3.150   1.370 -0.1054 -0.3069  0.9383
   76HFI     O1 1390   0.882   3.231   1.449 -0.1890 -0.9281  0.3900
   76HFI     C1 1391   0.922   3.351   1.524 -0.2598  0.0749 -0.3077
   76HFI     C2 1392   0.808   3.457   1.530  0.1228 -0.0142  0.8806
   76HFI     F1 1393   0.834   3.567   1.606 -0.0223  0.4830  0.2074
   76HFI     F2 1394   0.696   3.397   1.569  0.0140 -0.0759  0.3577
   76HFI     F3 1395   0.786   3.500   1.401 -0.4021 -0.4992 -0.3734
   76HFI     C3 1396   1.059   3.412   1.476  0.4520 -0.3247  0.9975
   76HFI     F4 1397   1.113   3.499   1.565 -0.3907  0.3211  0.0788
   76HFI     F5 1398   1.038   3.481   1.356 -0.0870 -0.1978 -0.0401
   76HFI     F6 1399   1.155   3.316   1.460  0.2757  0.9451  0.2895
   76HFI     H1 1400   0.904   3.232   1.355 -1.9405  1.3494 -0.0358
   76HFI     H2 1401   0.936   3.338   1.632  0.1924 -1.3696 -0.5311
   77HFI     O1 1402   0.392   1.943   3.657 -0.0222 -0.4732 -0.2327
   77HFI     C1 1403   0.287   1.929   3.556  0.2770 -0.2913 -0.2617
   77HFI     C2 1404   0.156   1.994   3.601  0.2595  1.0078 -0.4369
   77HFI     F1 1405   0.061   1.984   3.513  0.9189 -0.1240 -0.1398
   77HFI     F2 1406   0.169   2.131   3.625 -0.4104 -0.3367  0.2700
   77HFI     F3 1407   0.108   1.939   3.719 -0.0891  0.0939  0.0552
   77HFI     C3 1408   0.263   1.782   3.516 -0.2436  0.6711  0.2563
   77HFI     F4 1409   0.384   1.726   3.476 -0.8402  0.0759  0.1073
   77HFI     F5 1410   0.177   1.767   3.413  0.4354 -0.1976  0.1222
   77HFI     F6 1411   0.211   1.714   3.621  0.2065 -0.4502 -0.3724
   77HFI     H1 1412   0.359   1.894   3.734 -3.1472  0.7737 -0.7086
   77HFI     H2 1413   0.320   1.978   3.463 -1.8597  1.3270 -0.2154
   78HFI     O1 1414   2.463   0.029   0.866 -0.2843 -0.3595  0.3347
   78HFI     C1 1415   2.462   0.158   0.946  0.9388 -0.2399 -0.3134
   78HFI     C2 1416   2.396   0.124   1.082  0.0145  0.0774  0.0992
   78HFI     F1 1417   2.468   0.036   1.150 -0.0383  0.1108  0.2900
   78HFI     F2 1418   2.266   0.080   1.076  0.1562  0.0285 -0.7592
   78HFI     F3 1419   2.395   0.240   1.154  0.2012  0.5420 -0.6619
   78HFI     C3 1420   2.401   0.271   0.863 -0.2896 -0.1656 -0.0440
   78HFI     F4 1421   2.271   0.228   0.845  0.0003 -0.5550  0.1236
   78HFI     F5 1422   2.469   0.286   0.749  0.3470  0.4815  0.0384
   78HFI     F6 1423   2.411   0.385   0.932  0.3227  0.1826 -0.4001
   78HFI     H1 1424   2.404   0.050   0.791  0.8932 -0.1735 -0.5682
   78HFI     H2 1425   2.565   0.184   0.974  1.3443  0.1826 -2.1412
   79HFI     O1 1426   2.572   1.952   2.889  0.1488  0.0388 -0.6361
   79HFI     C1 1427   2.506   1.983   3.011  0.4498  0.4602 -0.3206
   79HFI     C2 1428   2.448   2.129   3.031 -0.0807  0.1697 -0.7148
   79HFI     F1 1429   2.364   2.147   3.136 -0.4419 -0.2567 -0.2116
   79HFI     F2 1430   2.380   2.163   2.919  0.3310  0.0059  0.1514
   79HFI     F3 1431   2.546   2.221   3.046  0.3369  0.6802 -0.2080
   79HFI     C3 1432   2.598   1.945   3.134 -0.4814  0.2430 -0.3750
   79HFI     F4 1433   2.544   1.981   3.252 -0.5785  0.4833  0.1259
   79HFI     F5 1434   2.723   1.993   3.124 -0.2438 -0.4011 -0.1947
   79HFI     F6 1435   2.616   1.813   3.127  0.7171 -0.3464 -0.6344
   79HFI     H1 1436   2.656   2.002   2.895  0.9339 -1.3437 -0.0719
   79HFI     H2 1437   2.418   1.917   3.008  1.6138 -1.1129 -0.1469
   80HFI     O1 1438   1.930   0.204   1.099  0.2197 -0.1863 -0.6227
   80HFI     C1 1439   1.831   0.253   1.000 -0.4334 -0.5240  0.3161
   80HFI     C2 1440   1.694   0.298   1.059  0.1638  0.1885 -0.0348
   80HFI     F1 1441   1.615   0.346   0.962 -0.3164  0.7194  0.8505
   80HFI     F2 1442   1.713   0.392   1.158  0.4059 -0.0136  0.7832
   80HFI     F3 1443   1.621   0.197   1.116  0.4622 -0.0807  0.0316
   80HFI     C3 1444   1.832   0.158   0.881  0.2098  0.4028  0.2041
   80HFI     F4 1445   1.791   0.210   0.763 -0.2653 -0.2876 -0.2539
   80HFI     F5 1446   1.748   0.060   0.904  0.2036  0.0962  0.5071
   80HFI     F6 1447   1.949   0.095   0.860 -0.3492  0.3158 -0.3475
   80HFI     H1 1448   1.885   0.198   1.186  0.6876  2.6911 -0.1239
   80HFI     H2 1449   1.876   0.339   0.949 -1.4387 -0.6030 -0.7169
   81HFI     O1 1450   0.492   2.928   3.325 -0.1141 -0.1732  0.3129
   81HFI     C1 1451   0.620   2.912   3.395  0.1291 -0.3337  0.2608
   81HFI     C2 1452   0.732   2.858   3.299  0.5591 -0.1328 -0.0214
   81HFI     F1 1453   0.695   2.732   3.243  0.1148 -0.4452 -0.1286
   81HFI     F2 1454   0.852   2.837   3.358 -0.2604 -0.0571 -0.2317
   81HFI     F3 1455   0.754   2.941   3.193  0.1669 -0.5917 -0.0659
   81HFI     C3 1456   0.604   2.818   3.518 -0.0788  0.0124 -0.2238
   81HFI     F4 1457   0.499   2.854   3.592 -0.0142  0.4782  0.0085
   81HFI     F5 1458   0.716   2.831   3.588  0.3640  0.1120 -0.2473
   81HFI     F6 1459   0.592   2.692   3.485  0.0624 -0.3419 -0.0543
   81HFI     H1 1460   0.454   2.842   3.297  0.0310 -0.1559  0.0572
   81HFI     H2 1461   0.652   3.012   3.428  2.0135 -0.8396  0.0212
   82HFI     O1 1462   1.388   0.536   0.353  0.1834  0.0927 -0.2125
   82HFI     C1 1463   1.337   0.640   0.261 -0.3121 -0.5916  0.0217
   82HFI     C2 1464   1.350   0.784   0.319  0.3909  0.3168 -1.0460
   82HFI     F1 1465   1.481   0.815   0.342 -0.1332 -0.4115  0.2217
   82HFI     F2 1466   1.288   0.797   0.438 -0.1648  0.6077  0.4406
   82HFI     F3 1467   1.307   0.880   0.236  0.2192  0.4592 -0.3424
   82HFI     C3 1468   1.193   0.602   0.223  0.0550 -0.8406  0.2703
   82HFI     F4 1469   1.183   0.472   0.194 -0.0070  0.3389  0.3937
   82HFI     F5 1470   1.162   0.663   0.106 -0.2345 -0.5026 -0.3034
   82HFI     F6 1471   1.101   0.645   0.316 -0.2726  0.0711  0.6210
   82HFI     H1 1472   1.472   0.564   0.395  0.3292 -0.0997 -0.3724
   82HFI     H2 1473   1.393   0.641   0.167  0.4982 -0.2741  0.5129
   83HFI     O1 1474   1.177   2.342   0.144  0.0662  0.2559 -0.3382
   83HFI     C1 1475   1.247   2.325   0.272  0.1602  0.5540  0.9105
   83HFI     C2 1476   1.195   2.203   0.345 -0.2740  0.0622  0.2539
   83HFI     F1 1477   1.061   2.195   0.364  0.2620  0.3131  0.1220
   83HFI     F2 1478   1.249   2.196   0.471 -0.1897 -0.3542  0.0975
   83HFI     F3 1479   1.228   2.095   0.275  0.0375  0.4970 -0.4057
   83HFI     C3 1480   1.259   2.450   0.361  0.1550  0.6724 -0.9268
   83HFI     F4 1481   1.349   2.428   0.462  0.2996 -0.4175 -0.7524
   83HFI     F5 1482   1.147   2.491   0.413 -0.5660  0.1195 -0.1008
   83HFI     F6 1483   1.310   2.554   0.290  0.3642  0.0665  0.4093
   83HFI     H1 1484   1.096   2.290   0.155  0.5429 -1.1523 -3.1266
   83HFI     H2 1485   1.349   2.295   0.248  0.3045  0.2217  1.9482
   84HFI     O1 1486   2.660   2.809   0.016  0.0009  0.1683  0.2375
   84HFI     C1 1487   2.549   2.720  -0.004  0.0912 -0.0261 -0.1254
   84HFI     C2 1488   2.530   2.668  -0.146 -0.3111 -0.3905  0.2936
   84HFI     F1 1489   2.415   2.603  -0.163 -0.3689 -0.1173  0.2526
   84HFI     F2 1490   2.624   2.575  -0.177 -0.2797  1.2419 -0.3116
   84HFI     F3 1491   2.540   2.771  -0.238 -0.3815 -0.4540 -0.2838
   84HFI     C3 1492   2.413   2.773   0.048  0.2952 -0.3009  0.0815
   84HFI     F4 1493   2.351   2.870  -0.024 -0.3397  0.3611  0.5102
   84HFI     F5 1494   2.425   2.823   0.176 -0.3436 -0.0210 -0.3523
   84HFI     F6 1495   2.324   2.670   0.064  0.8546 -0.0889  0.1480
   84HFI     H1 1496   2.638   2.898  -0.015 -0.8933  0.7087  2.2875
   84HFI     H2 1497   2.586   2.632   0.050  1.1345 -0.2009 -1.1189
   85HFI     O1 1498   2.164   2.396   0.032 -0.0069 -0.3018  0.2229
   85HFI     C1 1499   2.040   2.404  -0.046 -0.6236  0.1937  0.1142
   85HFI     C2 1500   2.030   2.542  -0.121 -0.0343  0.6591 -1.0481
   85HFI     F1 1501   2.022   2.640  -0.024  0.2792  0.1986 -0.0719
   85HFI     F2 1502   1.920   2.546  -0.196  0.2557 -0.7046 -0.3331
   85HFI     F3 1503   2.127   2.576  -0.211 -0.2554  0.1136 -0.1856
   85HFI     C3 1504   1.917   2.370   0.048 -0.6413 -0.0005  0.4569
   85HFI     F4 1505   1.941   2.439   0.164 -0.0472 -0.1241  0.6597
   85HFI     F5 1506   1.923   2.241   0.080  0.5153  0.2080 -0.0064
   85HFI     F6 1507   1.792   2.395   0.000  0.0700 -0.0314 -0.1180
   85HFI     H1 1508   2.173   2.471   0.093 -0.9625 -0.4075  0.4975
   85HFI     H2 1509   2.035   2.329  -0.126 -0.8646  0.5484 -0.2063
   86HFI     O1 1510   1.453   3.438   1.435  0.5091 -0.2536 -0.3464
   86HFI     C1 1511   1.559   3.454   1.530 -0.3815 -0.5378  0.4882
   86HFI     C2 1512   1.627   3.597   1.509  0.3802 -0.2534  0.1383
   86HFI     F1 1513   1.669   3.613   1.381  0.0277 -0.2020  0.2674
   86HFI     F2 1514   1.728   3.625   1.590 -0.0913  0.3446  0.0944
   86HFI     F3 1515   1.531   3.689   1.537  0.4258  0.3057 -0.0286
   86HFI     C3 1516   1.655   3.339   1.518 -0.5092  0.5855  0.8290
   86HFI     F4 1517   1.701   3.333   1.391 -0.2248  0.3966 -0.1852
   86HFI     F5 1518   1.599   3.220   1.550 -0.0394 -0.0877  0.0054
   86HFI     F6 1519   1.758   3.349   1.603  0.3885 -0.0650 -0.3499
   86HFI     H1 1520   1.492   3.403   1.353  0.4861  0.0242 -0.4789
   86HFI     H2 1521   1.519   3.455   1.632  3.4005  1.0577  2.0670
   87HFI     O1 1522   3.110   1.706   3.110  0.5078 -0.0917  0.0642
   87HFI     C1 1523   3.101   1.656   3.253  1.0750  0.4676 -0.7520
   87HFI     C2 1524   2.967   1.693   3.319 -0.4344  0.2200  0.4247
   87HFI     F1 1525   2.936   1.828   3.300  0.5242  0.0643  0.0601
   87HFI     F2 1526   2.963   1.669   3.453 -0.0301 -0.3998  0.8221
   87HFI     F3 1527   2.873   1.620   3.269  0.2008  0.0406  0.4523
   87HFI     C3 1528   3.220   1.700   3.347  0.0310 -0.1307 -0.2352
   87HFI     F4 1529   3.338   1.681   3.282  0.1096  0.2865  0.5514
   87HFI     F5 1530   3.228   1.634   3.465  0.4286 -0.3820 -0.3015
   87HFI     F6 1531   3.213   1.832   3.376 -0.0577 -0.3893 -0.0057
   87HFI     H1 1532   3.142   1.798   3.113  1.7926 -0.5738  2.0544
   87HFI     H2 1533   3.114   1.548   3.239 -1.1170  0.6331 -4.8160
   88HFI     O1 1534   2.580   2.643   3.179  0.3785 -0.2937 -0.2648
   88HFI     C1 1535   2.519   2.716   3.072  0.1146 -0.2086 -0.7733
   88HFI     C2 1536   2.607   2.686   2.943  0.0292  0.9610 -0.3975
   88HFI     F1 1537   2.589   2.773   2.846 -1.0030 -0.3337 -0.3179
   88HFI     F2 1538   2.589   2.559   2.893  0.4268  0.1873  0.2439
   88HFI     F3 1539   2.736   2.690   2.959 -0.4045 -0.4784  0.3851
   88HFI     C3 1540   2.498   2.864   3.109  0.1673 -0.2392 -0.3901
   88HFI     F4 1541   2.414   2.918   3.019 -0.3184 -0.2062 -0.5011
   88HFI     F5 1542   2.611   2.932   3.105 -0.5562 -0.5201 -0.0107
   88HFI     F6 1543   2.444   2.875   3.235 -0.0125  0.0866  0.2079
   88HFI     H1 1544   2.648   2.695   3.223  1.7171 -2.3979  0.2420
   88HFI     H2 1545   2.419   2.673   3.065  0.4903 -1.4329  0.9850
   89HFI     O1 1546   1.085   1.410   2.983 -0.2937 -0.3636  0.4824
   89HFI     C1 1547   1.143   1.490   2.874  0.4210  0.0314 -0.0043
   89HFI     C2 1548   1.271   1.572   2.903 -0.2696  0.4536 -0.8658
   89HFI     F1 1549   1.333   1.610   2.789  0.1288  0.0146 -0.5433
   89HFI     F2 1550   1.354   1.498   2.975  0.1619 -0.0114  0.2190
   89HFI     F3 1551   1.241   1.686   2.974 -0.2743  0.2619  0.0469
   89HFI     C3 1552   1.027   1.579   2.812  0.0581  0.5115  0.1334
   89HFI     F4 1553   0.970   1.656   2.906  0.2640 -0.0690  0.4246
   89HFI     F5 1554   0.927   1.504   2.750  0.1544 -0.0408 -0.7709
   89HFI     F6 1555   1.070   1.666   2.714  0.1947 -0.4226 -0.0208
   89HFI     H1 1556   1.050   1.464   3.056 -2.6861  0.6133 -1.2918
   89HFI     H2 1557   1.162   1.420   2.791 -0.1555 -0.0364 -0.0799
   90HFI     O1 1558   2.692   0.168   0.060  0.5017  0.2843 -0.3322
   90HFI     C1 1559   2.820   0.234   0.037 -0.1840  0.6786  0.0065
   90HFI     C2 1560   2.864   0.223  -0.110 -0.5534 -0.2629 -0.1739
   90HFI     F1 1561   2.964   0.313  -0.141  0.1562 -0.1326 -0.2556
   90HFI     F2 1562   2.769   0.262  -0.191  0.2800 -0.1941 -0.2334
   90HFI     F3 1563   2.893   0.101  -0.149 -0.2427 -0.2883  0.0669
   90HFI     C3 1564   2.922   0.178   0.136 -0.6504  0.0834 -0.4562
   90HFI     F4 1565   2.878   0.172   0.263 -0.1168 -0.6597  0.3417
   90HFI     F5 1566   3.035   0.246   0.130 -0.0459  0.7689  0.3368
   90HFI     F6 1567   2.943   0.053   0.107 -0.5969  0.4365 -0.0500
   90HFI     H1 1568   2.706   0.074   0.041  0.7916  0.2160  0.2167
   90HFI     H2 1569   2.808   0.340   0.061  1.2187  0.7436  0.4295
   91HFI     O1 1570   3.010   1.389   2.245  0.3625  0.2173  0.1922
   91HFI     C1 1571   2.994   1.316   2.370 -0.4630 -0.0799 -0.3361
   91HFI     C2 1572   3.037   1.170   2.350  0.2564  0.3778  0.5190
   91HFI     F1 1573   3.166   1.172   2.335 -0.0747  0.3414 -0.1477
   91HFI     F2 1574   2.978   1.101   2.248 -0.1608 -0.0156  0.2766
   91HFI     F3 1575   3.008   1.097   2.461 -0.2736  0.2038 -0.1199
   91HFI     C3 1576   2.852   1.338   2.429  0.9294  0.0445  0.2876
   91HFI     F4 1577   2.762   1.255   2.363  0.0833 -0.5624  0.5983
   91HFI     F5 1578   2.803   1.466   2.410 -0.2576  0.0641 -0.2937
   91HFI     F6 1579   2.844   1.307   2.565  0.2401 -0.2583 -0.4506
   91HFI     H1 1580   2.990   1.323   2.176  3.1608 -1.6221  0.9993
   91HFI     H2 1581   3.066   1.349   2.446 -1.9922  1.8376  0.3101
   92HFI     O1 1582   2.523   1.942   1.455  0.4043  0.6152 -0.3490
   92HFI     C1 1583   2.656   1.924   1.394  0.0557 -0.3608 -0.6493
   92HFI     C2 1584   2.634   1.817   1.277 -0.0994  0.5701 -0.2324
   92HFI     F1 1585   2.753   1.794   1.225  0.5796 -0.2242  0.1152
   92HFI     F2 1586   2.546   1.852   1.181 -0.2397  0.2850  0.1819
   92HFI     F3 1587   2.588   1.703   1.333 -0.1187  0.4798 -0.2110
   92HFI     C3 1588   2.777   1.899   1.490  0.8952  0.0213  0.0168
   92HFI     F4 1589   2.898   1.881   1.432 -0.0735 -0.1283 -0.3874
   92HFI     F5 1590   2.744   1.797   1.570  0.2039 -0.7263 -0.2542
   92HFI     F6 1591   2.794   2.011   1.557 -0.2194 -0.2224  0.3240
   92HFI     H1 1592   2.498   1.865   1.509 -2.4048  2.1796  0.6766
   92HFI     H2 1593   2.677   2.009   1.328  0.5393  0.8110  0.9742
   93HFI     O1 1594   1.067   0.947   3.650 -0.0049  0.1472  0.2438
   93HFI     C1 1595   1.072   1.080   3.594 -0.0113 -0.2988  0.2160
   93HFI     C2 1596   1.083   1.067   3.441  0.8875 -0.0777 -0.4994
   93HFI     F1 1597   1.181   0.978   3.408  0.1632  0.2775 -0.2199
   93HFI     F2 1598   1.109   1.190   3.382  0.1008  0.2443  0.3430
   93HFI     F3 1599   0.964   1.021   3.392 -0.0270  0.2155 -0.1894
   93HFI     C3 1600   1.188   1.162   3.668 -0.2770  0.1170 -0.4181
   93HFI     F4 1601   1.211   1.108   3.789  0.4911  0.5778  0.3354
   93HFI     F5 1602   1.146   1.292   3.683  0.0448 -0.4357 -0.2862
   93HFI     F6 1603   1.305   1.158   3.598  0.3438 -0.3601  0.1083
   93HFI     H1 1604   1.065   0.960   3.747 -1.5753  1.3548  0.0757
   93HFI     H2 1605   0.982   1.137   3.619  0.7064  1.4418 -1.0928
   94HFI     O1 1606   2.806   0.746   1.017  0.2137  0.1227 -0.0568
   94HFI     C1 1607   2.856   0.619   0.982 -0.1787  0.1172 -0.0779
   94HFI     C2 1608   2.743   0.547   0.908  0.2418  0.3411 -0.0051
   94HFI     F1 1609   2.730   0.605   0.786  0.4731 -0.1959 -0.4308
   94HFI     F2 1610   2.621   0.559   0.971  0.4703  0.2456  0.0084
   94HFI     F3 1611   2.778   0.414   0.884  0.3080 -0.5175  0.3350
   94HFI     C3 1612   2.905   0.550   1.108  0.3927 -0.6361 -0.0168
   94HFI     F4 1613   2.960   0.427   1.095 -0.0318  0.1477  0.4461
   94HFI     F5 1614   2.792   0.528   1.184 -0.1380 -0.8217 -0.5467
   94HFI     F6 1615   2.997   0.623   1.179  0.8966 -0.4766 -0.2929
   94HFI     H1 1616   2.870   0.801   1.065  0.8269  0.1456 -0.8835
   94HFI     H2 1617   2.943   0.623   0.915 -0.9174 -0.6166 -1.1077
   95HFI     O1 1618   2.348   1.550   3.067  0.5889  0.1330 -0.4095
   95HFI     C1 1619   2.387   1.565   3.208  0.2956  0.1997 -0.0546
   95HFI     C2 1620   2.392   1.427   3.282  0.5191  0.2065  0.2495
   95HFI     F1 1621   2.467   1.341   3.213  0.5088 -0.6230  0.2976
   95HFI     F2 1622   2.265   1.377   3.290  0.6660 -0.3544 -0.3120
   95HFI     F3 1623   2.449   1.427   3.405 -0.1215  0.1599 -0.5584
   95HFI     C3 1624   2.305   1.676   3.276 -0.3987 -0.4006 -0.2016
   95HFI     F4 1625   2.177   1.643   3.289  0.4258  0.0120 -0.5815
   95HFI     F5 1626   2.315   1.788   3.201  0.6589  0.0088  0.0977
   95HFI     F6 1627   2.357   1.709   3.399  0.0185 -0.1498  0.0654
   95HFI     H1 1628   2.347   1.454   3.048  0.5468  0.3424 -1.5329
   95HFI     H2 1629   2.486   1.612   3.211  1.2709 -1.6004 -2.2294
   96HFI     O1 1630   3.312   2.558   0.097 -0.4949 -0.1123 -0.6167
   96HFI     C1 1631   3.190   2.510   0.039 -0.0637 -0.1733 -0.0620
   96HFI     C2 1632   3.170   2.358   0.079  0.3705 -0.4369 -0.8282
   96HFI     F1 1633   3.292   2.295   0.057  0.3215 -0.8991 -0.6105
   96HFI     F2 1634   3.074   2.295   0.007  0.0796 -0.0078  0.1119
   96HFI     F3 1635   3.145   2.338   0.207  0.3407  0.4264  0.2805
   96HFI     C3 1636   3.170   2.537  -0.109 -0.6522  0.0484  0.3864
   96HFI     F4 1637   3.040   2.513  -0.139  0.1430 -0.1077 -0.5092
   96HFI     F5 1638   3.250   2.467  -0.190 -0.0203  0.3274 -0.3161
   96HFI     F6 1639   3.196   2.663  -0.139  0.6345 -0.0793  0.3251
   96HFI     H1 1640   3.388   2.513   0.057 -1.5594 -0.0837 -2.7071
   96HFI     H2 1641   3.105   2.555   0.092 -0.5605  0.5090 -1.4220
   97HFI     O1 1642   1.178   2.040   1.313  0.4886 -0.0280 -0.1936
   97HFI     C1 1643   1.211   1.942   1.419  0.0454 -0.1531  0.1117
   97HFI     C2 1644   1.076   1.893   1.479 -0.7105 -0.0016  0.0721
   97HFI     F1 1645   1.089   1.782   1.553 -0.2532 -0.2534  0.1564
   97HFI     F2 1646   0.980   1.871   1.390  0.2251 -0.8814  0.3436
   97HFI     F3 1647   1.025   1.986   1.561  0.0410 -0.3057 -0.3013
   97HFI     C3 1648   1.320   1.983   1.517  0.0140 -0.3542 -0.6908
   97HFI     F4 1649   1.377   1.873   1.580 -0.4925 -0.1025  0.0693
   97HFI     F5 1650   1.275   2.063   1.619  0.1911 -0.0301  0.0665
   97HFI     F6 1651   1.422   2.044   1.450  0.3825  0.6881  0.8532
   97HFI     H1 1652   1.242   2.035   1.240  0.1361  0.6330 -0.5493
   97HFI     H2 1653   1.261   1.854   1.376 -0.8045 -1.1254  1.0811
   98HFI     O1 1654   0.334   0.291   0.963 -0.1675  0.4145 -0.7073
   98HFI     C1 1655   0.478   0.303   0.979 -0.8853  0.4705 -0.1041
   98HFI     C2 1656   0.539   0.397   0.880 -0.1442  0.0050 -0.2595
   98HFI     F1 1657   0.671   0.416   0.908 -0.4017 -0.2947  0.5360
   98HFI     F2 1658   0.471   0.518   0.887  0.0496 -0.7812  0.2639
   98HFI     F3 1659   0.533   0.351   0.754  0.3152  0.6367  0.5102
   98HFI     C3 1660   0.538   0.161   0.978 -0.1821  0.7559  0.8457
   98HFI     F4 1661   0.473   0.082   1.062 -0.2618  0.2076  0.2383
   98HFI     F5 1662   0.655   0.172   1.028 -0.7214  0.0888 -0.2172
   98HFI     F6 1663   0.555   0.099   0.858 -0.4224 -0.4153 -0.2131
   98HFI     H1 1664   0.320   0.235   0.885  1.5301 -2.0502  0.6871
   98HFI     H2 1665   0.494   0.352   1.076  1.0000 -0.9020  0.3154
   99HFI     O1 1666   0.883   2.153   0.721  0.1492 -0.1726 -0.2069
   99HFI     C1 1667   1.003   2.100   0.791 -0.3360 -0.2728  1.1024
   99HFI     C2 1668   1.029   1.945   0.758  0.7349 -0.2997 -0.4341
   99HFI     F1 1669   1.039   1.927   0.622  0.4834 -0.0995  0.2554
   99HFI     F2 1670   0.930   1.871   0.807 -0.0170  0.5194  0.5712
   99HFI     F3 1671   1.147   1.906   0.803  0.6713  0.0798 -0.2768
   99HFI     C3 1672   0.991   2.115   0.951  0.3821  0.5644  0.0895
   99HFI     F4 1673   0.998   2.243   1.005 -0.6445  0.2649 -0.0225
   99HFI     F5 1674   1.088   2.046   1.016 -0.1056  0.2668 -0.8789
   99HFI     F6 1675   0.873   2.063   0.993  0.0454  0.0296 -0.0123
   99HFI     H1 1676   0.840   2.217   0.780 -1.0902 -1.2333  0.0835
   99HFI     H2 1677   1.088   2.159   0.754 -2.2921  1.1977 -1.2535
  100HFI     O1 1678   2.235   0.110   1.336 -0.4522  0.3590  0.0515
  100HFI     C1 1679   2.213   0.030   1.460  0.5375  0.2895  0.3572
  100HFI     C2 1680   2.300  -0.098   1.449  0.0169 -0.1091 -0.7111
  100HFI     F1 1681   2.282  -0.178   1.559 -0.5328 -0.3491 -0.2330
  100HFI     F2 1682   2.426  -0.067   1.432  0.5864 -0.1764 -0.2035
  100HFI     F3 1683   2.267  -0.167   1.339  0.1604 -0.1008 -0.1463
  100HFI     C3 1684   2.064  -0.004   1.473  0.1795 -0.3505  0.0683
  100HFI     F4 1685   2.032  -0.084   1.574 -0.1080  0.2547 -0.4812
  100HFI     F5 1686   2.012  -0.055   1.357 -0.1791 -0.2512 -0.8923
  100HFI     F6 1687   1.996   0.113   1.500 -0.2043  0.6018  0.3149
  100HFI     H1 1688   2.158   0.089   1.281  0.4164 -1.4986 -0.4983
  100HFI     H2 1689   2.243   0.093   1.544  0.3426  1.2213 -0.2618
  101HFI     O1 1690   1.247   2.357   0.992  0.1816  0.7612 -0.7037
  101HFI     C1 1691   1.314   2.490   0.972  0.9142 -0.2948  0.7396
  101HFI     C2 1692   1.380   2.494   0.830  0.6858 -0.1936 -0.9893
  101HFI     F1 1693   1.438   2.616   0.809  0.3525  0.6313 -0.0451
  101HFI     F2 1694   1.286   2.485   0.738  0.1834 -0.4103 -0.1507
  101HFI     F3 1695   1.469   2.402   0.815 -0.2484 -0.6115  0.2155
  101HFI     C3 1696   1.392   2.527   1.096  0.4694  0.0537  0.2381
  101HFI     F4 1697   1.440   2.653   1.097  0.1333  0.2413 -0.2103
  101HFI     F5 1698   1.495   2.445   1.105  0.3860 -0.5658  0.0343
  101HFI     F6 1699   1.323   2.513   1.211  0.4065 -0.0810  0.0762
  101HFI     H1 1700   1.189   2.354   1.070  1.6060 -0.3401  0.3431
  101HFI     H2 1701   1.236   2.566   0.961  3.5306  2.1946 -1.4421
  102HFI     O1 1702   3.233   3.418   0.049 -0.2583 -0.3563  0.1023
  102HFI     C1 1703   3.337   3.527   0.031  0.8468 -0.3395  0.1777
  102HFI     C2 1704   3.396   3.528  -0.115 -0.3762  0.3403 -0.1382
  102HFI     F1 1705   3.302   3.575  -0.197 -0.0203  0.1417 -0.3369
  102HFI     F2 1706   3.423   3.399  -0.145  0.4879 -0.3610  0.1453
  102HFI     F3 1707   3.501   3.602  -0.123 -0.1548 -0.5273  0.2339
  102HFI     C3 1708   3.448   3.516   0.148 -0.6528  0.7776 -0.5195
  102HFI     F4 1709   3.538   3.414   0.126  0.6716 -0.3627 -0.1053
  102HFI     F5 1710   3.383   3.497   0.273 -0.8349 -0.3296  0.1702
  102HFI     F6 1711   3.521   3.628   0.157 -0.2189  0.8336  0.0947
  102HFI     H1 1712   3.286   3.336   0.046  1.8868  0.9366  1.2229
  102HFI     H2 1713   3.285   3.623   0.037 -0.4548 -1.0675  0.7360
  103HFI     O1 1714   2.452   1.464   1.613  0.0893  0.6064  0.4144
  103HFI     C1 1715   2.357   1.497   1.508 -0.1307  0.3711  0.4357
  103HFI     C2 1716   2.295   1.639   1.521  0.1421 -0.0877  0.4469
  103HFI     F1 1717   2.208   1.641   1.623 -0.6170  0.0505  0.1519
  103HFI     F2 1718   2.224   1.677   1.411  0.7700  0.2431  0.1947
  103HFI     F3 1719   2.397   1.729   1.533  0.1093 -0.0557  0.1607
  103HFI     C3 1720   2.251   1.381   1.491 -0.1868 -0.1262  0.6320
  103HFI     F4 1721   2.315   1.261   1.477 -0.1103  0.0105 -0.2877
  103HFI     F5 1722   2.183   1.406   1.376  0.2533  0.0901 -0.5799
  103HFI     F6 1723   2.165   1.369   1.596 -0.2974  0.2574  0.3969
  103HFI     H1 1724   2.495   1.379   1.593  0.8514  1.3120 -0.9667
  103HFI     H2 1725   2.412   1.510   1.414  1.2994  0.2624  1.2511
  104HFI     O1 1726   0.635   0.492   2.964  0.8162  0.4848 -0.4258
  104HFI     C1 1727   0.686   0.391   3.051  0.6767 -0.0781 -0.0584
  104HFI     C2 1728   0.784   0.293   2.976  0.6372 -0.5779 -0.2000
  104HFI     F1 1729   0.844   0.209   3.063 -0.1553  0.0368  0.0373
  104HFI     F2 1730   0.875   0.366   2.911 -0.5447  0.0303 -0.6406
  104HFI     F3 1731   0.726   0.211   2.888  0.8466 -0.3872 -0.1404
  104HFI     C3 1732   0.570   0.308   3.129  0.8079 -0.1268 -0.1288
  104HFI     F4 1733   0.506   0.391   3.215  0.0962  0.2231 -0.2157
  104HFI     F5 1734   0.608   0.202   3.194 -0.1025 -0.1230 -0.2517
  104HFI     F6 1735   0.489   0.265   3.028  0.3981 -0.2424 -0.3205
  104HFI     H1 1736   0.600   0.448   2.885 -0.5201 -0.1967  0.5105
  104HFI     H2 1737   0.732   0.442   3.137  0.7535 -0.9260  0.4074
  105HFI     O1 1738   1.006   0.279   0.339 -0.3026 -0.0759 -0.1421
  105HFI     C1 1739   0.960   0.139   0.366 -0.2154  0.0463  0.7605
  105HFI     C2 1740   1.080   0.060   0.423  0.0529 -1.2272  0.2375
  105HFI     F1 1741   1.164   0.019   0.326 -0.2731  0.1162 -0.3806
  105HFI     F2 1742   1.044  -0.056   0.482  0.2171  0.5505  0.2428
  105HFI     F3 1743   1.158   0.136   0.504  0.6132 -0.1167 -0.8557
  105HFI     C3 1744   0.895   0.068   0.244 -0.5352  0.1906  0.0705
  105HFI     F4 1745   0.963   0.084   0.131 -0.3603 -0.2156  0.4752
  105HFI     F5 1746   0.770   0.118   0.219 -0.5738  0.3006 -0.1387
  105HFI     F6 1747   0.883  -0.069   0.259  0.3552 -0.3034  0.0232
  105HFI     H1 1748   1.089   0.277   0.289 -0.2168  0.0464  0.0001
  105HFI     H2 1749   0.876   0.148   0.436 -0.2971 -1.3240  0.8517
  106HFI     O1 1750   0.052   2.116   1.383 -0.0552 -0.0041  0.3315
  106HFI     C1 1751  -0.020   2.037   1.483  0.3410 -0.0768 -1.0961
  106HFI     C2 1752  -0.010   1.882   1.478  0.0895 -0.4772 -0.5266
  106HFI     F1 1753   0.119   1.851   1.475 -0.3880 -0.3279 -0.1085
  106HFI     F2 1754  -0.057   1.833   1.361  0.2132 -0.2466  0.4970
  106HFI     F3 1755  -0.064   1.810   1.579 -0.8358 -0.2683 -0.2813
  106HFI     C3 1756  -0.165   2.080   1.498  0.4628 -0.1367  0.7262
  106HFI     F4 1757  -0.211   2.036   1.614 -0.3604  0.7053  0.0094
  106HFI     F5 1758  -0.245   2.031   1.401  0.0287  0.4224  0.6656
  106HFI     F6 1759  -0.172   2.215   1.497 -0.0790 -0.0093 -0.4352
  106HFI     H1 1760   0.052   2.210   1.407  1.1426 -0.0229  0.4364
  106HFI     H2 1761   0.032   2.055   1.578  1.3438  0.7835 -1.8023
  107HFI     O1 1762   0.382   1.642   0.493 -0.5811 -0.1148 -0.5741
  107HFI     C1 1763   0.295   1.536   0.551 -0.4076 -0.2530  0.4897
  107HFI     C2 1764   0.271   1.412   0.461 -0.6450  0.3416 -0.0353
  107HFI     F1 1765   0.398   1.373   0.416  0.9520  0.6592 -0.3471
  107HFI     F2 1766   0.196   1.439   0.349 -0.0080 -0.5793  0.3721
  107HFI     F3 1767   0.214   1.307   0.524  0.0329  0.2037 -0.3672
  107HFI     C3 1768   0.164   1.595   0.616 -0.1282 -0.0612 -0.9634
  107HFI     F4 1769   0.077   1.502   0.666  0.4734  0.3219  0.3204
  107HFI     F5 1770   0.096   1.680   0.533 -0.9382  0.4309  0.3036
  107HFI     F6 1771   0.202   1.682   0.712 -0.6666  0.2285  0.1263
  107HFI     H1 1772   0.330   1.722   0.474 -1.0687 -0.4319 -0.5774
  107HFI     H2 1773   0.355   1.487   0.628  0.3875 -1.2804 -0.7652
  108HFI     O1 1774   2.363   1.235   0.430 -0.0112  0.2509 -0.3147
  108HFI     C1 1775   2.500   1.204   0.457 -0.3592 -0.0934 -0.0657
  108HFI     C2 1776   2.598   1.284   0.362 -0.3575 -0.1763 -0.3372
  108HFI     F1 1777   2.722   1.270   0.400 -0.0467 -0.2232 -0.3826
  108HFI     F2 1778   2.571   1.418   0.367  0.2913 -0.1646  0.1197
  108HFI     F3 1779   2.594   1.237   0.240  0.1322  0.2082 -0.1303
  108HFI     C3 1780   2.512   1.049   0.462  0.3553 -0.3913  0.2510
  108HFI     F4 1781   2.470   0.994   0.340 -0.1927 -0.3999 -0.0063
  108HFI     F5 1782   2.424   0.994   0.562 -0.4199  0.3740  0.0829
  108HFI     F6 1783   2.636   1.004   0.479 -0.2762  0.2169  0.2369
  108HFI     H1 1784   2.354   1.248   0.334  0.2912 -1.7362 -0.6315
  108HFI     H2 1785   2.515   1.236   0.561 -2.6047 -0.7632  0.4984
  109HFI     O1 1786   0.476   2.910   0.507 -0.2334 -0.4331  0.3445
  109HFI     C1 1787   0.511   3.020   0.414 -0.4055  0.4548 -0.5033
  109HFI     C2 1788   0.616   2.971   0.307  0.3041 -0.0439  0.5564
  109HFI     F1 1789   0.735   2.955   0.352 -0.5453 -0.2574 -0.1279
  109HFI     F2 1790   0.622   3.058   0.208  0.1812 -0.3532  0.8828
  109HFI     F3 1791   0.573   2.861   0.247 -0.1725 -0.1571 -0.1516
  109HFI     C3 1792   0.553   3.153   0.477  0.0079  0.3769  0.4481
  109HFI     F4 1793   0.669   3.141   0.540  0.5486 -0.6198 -0.4803
  109HFI     F5 1794   0.470   3.205   0.567  0.6190  0.2155  0.2387
  109HFI     F6 1795   0.567   3.259   0.389 -0.1385  0.1628  0.4051
  109HFI     H1 1796   0.554   2.891   0.562 -0.9167 -2.9144  0.5022
  109HFI     H2 1797   0.423   3.040   0.352 -0.8449  1.5328  0.4471
  110HFI     O1 1798   0.328   1.908   0.456 -0.1616  0.2696  0.2861
  110HFI     C1 1799   0.363   1.928   0.320 -0.3679 -0.2351 -0.0640
  110HFI     C2 1800   0.367   2.076   0.274 -0.3445 -0.4331  0.6258
  110HFI     F1 1801   0.467   2.133   0.339 -0.3140 -0.3558  0.7337
  110HFI     F2 1802   0.253   2.138   0.323  0.2055 -0.2757  0.0084
  110HFI     F3 1803   0.380   2.106   0.138 -0.8107 -0.0296 -0.3784
  110HFI     C3 1804   0.260   1.848   0.229  0.3245  0.3798 -0.1283
  110HFI     F4 1805   0.292   1.863   0.097  0.3042  0.0781  0.0805
  110HFI     F5 1806   0.137   1.893   0.249  0.3632 -0.0940 -0.0661
  110HFI     F6 1807   0.257   1.718   0.250 -0.4530 -0.5483 -0.2177
  110HFI     H1 1808   0.343   1.993   0.500 -0.0080  0.0309  0.6947
  110HFI     H2 1809   0.460   1.882   0.298 -0.5081  0.6705 -2.8210
  111HFI     O1 1810   0.784   1.451   1.314  0.1840  0.8397 -0.0794
  111HFI     C1 1811   0.832   1.374   1.425 -0.9955  0.2139  0.2739
  111HFI     C2 1812   0.727   1.317   1.520  0.0256  0.2948 -0.2858
  111HFI     F1 1813   0.624   1.252   1.459  0.2333  0.0860 -0.0120
  111HFI     F2 1814   0.666   1.416   1.590 -0.2608 -0.1432 -0.4506
  111HFI     F3 1815   0.783   1.237   1.604  0.0270 -0.4464 -0.2895
  111HFI     C3 1816   0.955   1.451   1.498  0.4829  0.2539 -0.0944
  111HFI     F4 1817   1.035   1.498   1.406 -0.5144 -0.2791  0.2239
  111HFI     F5 1818   1.031   1.376   1.576  0.3746  0.0867  0.2926
  111HFI     F6 1819   0.911   1.563   1.570  0.4261  0.2905  0.4287
  111HFI     H1 1820   0.778   1.544   1.342 -0.5626  0.8743 -0.3618
  111HFI     H2 1821   0.885   1.284   1.389  1.0222  1.6909 -0.5208
  112HFI     O1 1822   1.720   0.588   0.329 -0.5522 -0.5669  0.5142
  112HFI     C1 1823   1.823   0.559   0.433 -0.3850  0.0825 -0.5653
  112HFI     C2 1824   1.889   0.416   0.404 -0.1337 -0.8847  0.5980
  112HFI     F1 1825   1.997   0.383   0.479 -0.3517 -0.4437 -0.1516
  112HFI     F2 1826   1.921   0.407   0.270 -0.1271  0.1778  0.0180
  112HFI     F3 1827   1.797   0.321   0.422 -0.0122  0.1193 -0.6830
  112HFI     C3 1828   1.777   0.568   0.580 -0.4163 -0.1613  0.2350
  112HFI     F4 1829   1.670   0.489   0.606 -0.0512 -0.1399 -0.0767
  112HFI     F5 1830   1.745   0.696   0.601 -0.2674 -0.5020 -0.4455
  112HFI     F6 1831   1.882   0.545   0.657  0.3686 -0.1652  0.4149
  112HFI     H1 1832   1.759   0.570   0.242  2.0938 -2.8535  2.1108
  112HFI     H2 1833   1.909   0.626   0.426 -0.6361  0.7836  2.3396
  113HFI     O1 1834   0.280   3.374   1.305  0.4340  0.2960 -0.7449
  113HFI     C1 1835   0.253   3.293   1.426  0.2644 -0.2543  0.6363
  113HFI     C2 1836   0.136   3.347   1.511 -0.3159  0.3960  0.0928
  113HFI     F1 1837   0.038   3.374   1.423  0.0474  0.1202  0.0400
  113HFI     F2 1838   0.174   3.470   1.568 -0.2171 -0.1191 -0.1882
  113HFI     F3 1839   0.093   3.259   1.601 -0.4898 -0.0181 -0.8954
  113HFI     C3 1840   0.374   3.269   1.508 -0.4314 -0.1727 -0.2987
  113HFI     F4 1841   0.347   3.182   1.606  0.5699  0.2656  0.0647
  113HFI     F5 1842   0.422   3.390   1.556 -0.6260  0.1377  0.2177
  113HFI     F6 1843   0.481   3.212   1.437 -0.2345  0.3700 -0.5166
  113HFI     H1 1844   0.235   3.459   1.322 -0.6753 -0.5335  0.5330
  113HFI     H2 1845   0.222   3.190   1.405 -2.6192  0.5396  0.7649
  114HFI     O1 1846   1.039   1.725   2.451  0.7184  0.2248  0.3522
  114HFI     C1 1847   0.908   1.735   2.391  0.4174 -0.3098  0.0113
  114HFI     C2 1848   0.855   1.595   2.352  0.6277  0.0081 -0.5089
  114HFI     F1 1849   0.889   1.555   2.232 -0.3385 -0.6598  0.1879
  114HFI     F2 1850   0.723   1.601   2.365 -0.5648  0.6215  0.1734
  114HFI     F3 1851   0.892   1.504   2.441  0.3734  0.1832 -0.8148
  114HFI     C3 1852   0.897   1.842   2.279  0.0896 -0.5597 -0.8418
  114HFI     F4 1853   0.913   1.970   2.310 -0.0627  0.0930 -0.2238
  114HFI     F5 1854   0.783   1.824   2.218  0.2752 -0.0554  0.1015
  114HFI     F6 1855   0.989   1.812   2.189  0.1253  0.3592  0.8218
  114HFI     H1 1856   1.046   1.641   2.499  1.1747 -0.5130 -0.9874
  114HFI     H2 1857   0.833   1.760   2.467  1.5875 -0.6578  1.3005
  115HFI     O1 1858   0.468   1.718   0.858  0.0219 -1.1677  0.2393
  115HFI     C1 1859   0.493   1.795   0.983 -0.3033 -0.2025 -0.0292
  115HFI     C2 1860   0.451   1.943   0.978 -0.0462 -0.0556  0.5324
  115HFI     F1 1861   0.427   2.000   1.103 -0.0184  0.3875  0.8353
  115HFI     F2 1862   0.340   1.954   0.891  0.1012  0.4233  0.6453
  115HFI     F3 1863   0.552   2.010   0.925  0.1684 -0.1360  0.1229
  115HFI     C3 1864   0.628   1.774   1.041 -0.5320 -0.2753  0.1882
  115HFI     F4 1865   0.635   1.651   1.091  0.8000  0.1435  0.2586
  115HFI     F5 1866   0.674   1.862   1.132 -0.1843 -0.2394 -0.2964
  115HFI     F6 1867   0.718   1.769   0.943 -0.4757  0.5616  0.1342
  115HFI     H1 1868   0.551   1.716   0.807 -0.1935 -0.0872 -0.1504
  115HFI     H2 1869   0.434   1.751   1.065  0.1820  0.5513  0.7310
  116HFI     O1 1870   0.243   2.535   0.454  0.4642 -1.3646 -0.0441
  116HFI     C1 1871   0.106   2.595   0.457  0.0956 -0.1146 -0.0763
  116HFI     C2 1872   0.102   2.721   0.373  1.1868 -0.1059 -0.5712
  116HFI     F1 1873  -0.024   2.771   0.356  0.1669  0.7499  0.0253
  116HFI     F2 1874   0.155   2.704   0.247  0.0027  0.2509  0.1671
  116HFI     F3 1875   0.165   2.824   0.446 -0.3678  0.1797  0.0008
  116HFI     C3 1876   0.043   2.595   0.592 -0.0682 -0.4653 -0.0402
  116HFI     F4 1877   0.022   2.463   0.641  0.0539 -0.2232  0.3922
  116HFI     F5 1878  -0.077   2.655   0.587  0.0610 -0.4562 -0.3789
  116HFI     F6 1879   0.112   2.660   0.682 -0.7065  0.5110 -0.1249
  116HFI     H1 1880   0.247   2.491   0.368  2.1281  0.7357 -1.1100
  116HFI     H2 1881   0.041   2.530   0.396 -3.1539  0.5845  2.4836
  117HFI     O1 1882   1.902   1.576   1.470 -0.0826  0.1564  0.0679
  117HFI     C1 1883   1.781   1.588   1.549 -0.3965 -0.1640  0.4137
  117HFI     C2 1884   1.681   1.482   1.509  0.5825  0.4519 -0.0871
  117HFI     F1 1885   1.595   1.463   1.614 -0.1286  0.0026 -0.0697
  117HFI     F2 1886   1.735   1.361   1.485 -0.0502  1.0722  0.2953
  117HFI     F3 1887   1.605   1.513   1.403 -0.2380 -0.2019 -0.3263
  117HFI     C3 1888   1.723   1.734   1.544  0.8564 -0.0553  0.4951
  117HFI     F4 1889   1.804   1.827   1.611  0.3032 -0.8670 -0.0616
  117HFI     F5 1890   1.607   1.731   1.609  0.0990  0.1147  0.0324
  117HFI     F6 1891   1.703   1.778   1.424 -0.0200  0.1219  0.5033
  117HFI     H1 1892   1.882   1.600   1.377 -0.4893 -2.0346 -0.4367
  117HFI     H2 1893   1.800   1.569   1.655 -1.1218  1.7113  0.8979
  118HFI     O1 1894   0.144   1.894   2.502 -0.4322 -0.4496  0.1279
  118HFI     C1 1895   0.032   1.818   2.440 -0.3370  0.3002 -0.2370
  118HFI     C2 1896   0.038   1.681   2.510  0.1545 -0.0974 -0.0611
  118HFI     F1 1897   0.154   1.618   2.489 -0.3490 -0.0027  0.2875
  118HFI     F2 1898  -0.061   1.598   2.476 -0.3366 -0.1747  0.7711
  118HFI     F3 1899   0.026   1.698   2.644 -0.6991 -0.0906  0.2973
  118HFI     C3 1900   0.037   1.820   2.289 -0.0366 -0.0986  0.3386
  118HFI     F4 1901  -0.083   1.782   2.242  0.3921  0.0979  0.2632
  118HFI     F5 1902   0.124   1.734   2.240 -0.2249 -0.2946 -0.0029
  118HFI     F6 1903   0.061   1.945   2.232 -0.0313  0.3359 -0.0321
  118HFI     H1 1904   0.167   1.963   2.438 -2.6506 -0.2962 -0.5721
  118HFI     H2 1905  -0.061   1.862   2.477 -1.4571 -1.7524 -0.5603
  119HFI     O1 1906   0.291   2.322   1.281  0.1862 -0.4341  0.3705
  119HFI     C1 1907   0.393   2.241   1.348 -0.1713 -0.2627 -0.4487
  119HFI     C2 1908   0.382   2.253   1.506  0.6217 -0.4074  0.1927
  119HFI     F1 1909   0.403   2.375   1.552 -0.3269 -0.0840 -0.6403
  119HFI     F2 1910   0.455   2.170   1.575  0.6931 -0.2788 -0.1760
  119HFI     F3 1911   0.256   2.234   1.555 -0.4864  0.7096  0.0476
  119HFI     C3 1912   0.530   2.296   1.295 -0.4038 -0.0443 -0.4274
  119HFI     F4 1913   0.551   2.421   1.330 -0.1192  0.2041  0.2752
  119HFI     F5 1914   0.523   2.289   1.160 -0.2364 -0.4663 -0.0456
  119HFI     F6 1915   0.635   2.222   1.345  0.5252  0.1077 -0.4908
  119HFI     H1 1916   0.333   2.348   1.196  0.4438  2.1622  1.2427
  119HFI     H2 1917   0.381   2.134   1.327 -1.6057 -0.1577 -0.1914
  120HFI     O1 1918   1.107   2.568   2.378 -0.1870 -0.1342  0.9181
  120HFI     C1 1919   1.084   2.443   2.310 -0.5040 -0.2284 -0.0853
  120HFI     C2 1920   0.932   2.407   2.291 -0.1380 -0.5250  0.8239
  120HFI     F1 1921   0.861   2.497   2.223  0.5043  0.8674  0.1589
  120HFI     F2 1922   0.868   2.399   2.408 -0.0370  0.4332  0.2534
  120HFI     F3 1923   0.904   2.302   2.213 -0.2594  0.3496 -0.2764
  120HFI     C3 1924   1.165   2.330   2.379 -0.1990  0.0997  0.3014
  120HFI     F4 1925   1.295   2.357   2.383 -0.2504  0.2341  0.0777
  120HFI     F5 1926   1.152   2.219   2.307  0.3948  0.4167 -0.1972
  120HFI     F6 1927   1.117   2.307   2.497  0.3305 -0.1281 -0.4578
  120HFI     H1 1928   1.188   2.613   2.351 -1.4724  0.0127 -3.0442
  120HFI     H2 1929   1.131   2.447   2.211 -2.9265 -0.5249 -1.2908
  121HFI     O1 1930   2.550   2.725   2.433  0.6032  0.0987  0.4593
  121HFI     C1 1931   2.692   2.692   2.415  0.8535 -0.0174  0.2075
  121HFI     C2 1932   2.768   2.790   2.320  0.7158  0.0089  0.0084
  121HFI     F1 1933   2.773   2.911   2.380 -0.0543  0.0899 -0.5167
  121HFI     F2 1934   2.700   2.796   2.198 -0.1845 -0.0780 -0.4911
  121HFI     F3 1935   2.892   2.751   2.293 -0.7293 -0.0193  0.0810
  121HFI     C3 1936   2.703   2.545   2.369 -0.3032 -0.2501 -0.2192
  121HFI     F4 1937   2.620   2.472   2.452 -0.8348  0.5978 -0.2180
  121HFI     F5 1938   2.828   2.495   2.366 -0.1805 -0.1940  0.0345
  121HFI     F6 1939   2.655   2.529   2.244 -0.1297  0.3478  0.0771
  121HFI     H1 1940   2.530   2.816   2.461 -1.2917 -1.0596  2.9979
  121HFI     H2 1941   2.742   2.695   2.512 -0.2579  2.9808  0.7362
  122HFI     O1 1942   1.479   0.583   2.833  0.0483 -0.0099 -0.3380
  122HFI     C1 1943   1.616   0.627   2.852  0.3326 -0.1938  1.0012
  122HFI     C2 1944   1.686   0.656   2.713  0.5377 -0.0838  0.1358
  122HFI     F1 1945   1.604   0.727   2.626 -0.0059  0.3014 -0.0912
  122HFI     F2 1946   1.706   0.541   2.642 -0.1171 -0.6222 -0.4793
  122HFI     F3 1947   1.804   0.722   2.717  0.8855  0.6398 -0.6409
  122HFI     C3 1948   1.709   0.538   2.942 -0.7516 -0.0611 -0.8436
  122HFI     F4 1949   1.835   0.583   2.958 -0.5161 -0.1357  0.1094
  122HFI     F5 1950   1.716   0.418   2.889 -0.4668 -0.4154 -0.0693
  122HFI     F6 1951   1.656   0.509   3.065  0.2970 -0.4991  0.1002
  122HFI     H1 1952   1.476   0.501   2.781  1.4342 -1.3700  1.6466
  122HFI     H2 1953   1.614   0.726   2.898  0.9744 -0.2083  1.0640
  123HFI     O1 1954   2.474   0.062   0.228 -0.0874 -0.5169 -0.0372
  123HFI     C1 1955   2.576   0.065   0.340 -0.4457 -0.5654  0.2523
  123HFI     C2 1956   2.645  -0.070   0.351  0.3637  0.1914 -0.2289
  123HFI     F1 1957   2.701  -0.108   0.237 -0.0062 -0.5977  0.1000
  123HFI     F2 1958   2.560  -0.167   0.396  0.3454 -0.0613 -0.4348
  123HFI     F3 1959   2.740  -0.061   0.441 -0.6864 -0.1626 -0.1115
  123HFI     C3 1960   2.522   0.110   0.481  0.2602  0.8240 -0.0394
  123HFI     F4 1961   2.426   0.024   0.530 -0.1950 -0.1627  0.1814
  123HFI     F5 1962   2.462   0.235   0.466 -0.0161  0.1144  0.9029
  123HFI     F6 1963   2.619   0.120   0.573 -0.7414 -0.3100  0.1582
  123HFI     H1 1964   2.410  -0.011   0.236  1.0878 -1.4322  1.3152
  123HFI     H2 1965   2.655   0.137   0.315 -1.7276  0.4042 -1.0801
  124HFI     O1 1966   2.684   2.576   1.121 -0.1911  0.0834 -0.2126
  124HFI     C1 1967   2.567   2.493   1.106  0.5926 -0.6780 -0.0208
  124HFI     C2 1968   2.596   2.342   1.081  0.5256  0.8957  0.9055
  124HFI     F1 1969   2.675   2.336   0.966  0.3901  0.1096  0.1092
  124HFI     F2 1970   2.481   2.274   1.051  0.0541  0.0281 -0.1862
  124HFI     F3 1971   2.658   2.280   1.182  0.0102  0.5833 -0.2944
  124HFI     C3 1972   2.462   2.546   1.004 -0.5926  0.5766  0.4797
  124HFI     F4 1973   2.503   2.515   0.877  0.4484  0.2330 -0.6110
  124HFI     F5 1974   2.461   2.675   1.013  0.0959 -0.5186 -0.4923
  124HFI     F6 1975   2.335   2.508   1.023 -0.4610 -0.1696  0.2578
  124HFI     H1 1976   2.657   2.655   1.070 -2.0941 -0.1572  0.3911
  124HFI     H2 1977   2.518   2.486   1.203  1.6007  1.4033  0.6670
  125HFI     O1 1978   2.335   1.276   0.136 -0.5998  0.0442 -0.0646
  125HFI     C1 1979   2.248   1.281   0.013  0.2760  0.2384  0.7348
  125HFI     C2 1980   2.334   1.330  -0.108 -0.1177  0.4373 -0.4065
  125HFI     F1 1981   2.350   1.463  -0.116  0.0041 -0.0629 -0.2316
  125HFI     F2 1982   2.282   1.293  -0.225 -0.2274 -0.6110  0.2098
  125HFI     F3 1983   2.459   1.279  -0.103 -0.2964  0.4499 -0.0929
  125HFI     C3 1984   2.125   1.373   0.041 -0.4318  0.1770 -0.5190
  125HFI     F4 1985   2.165   1.489   0.100 -0.0153 -0.0833 -0.5070
  125HFI     F5 1986   2.037   1.315   0.128  0.2647 -0.0506 -0.0397
  125HFI     F6 1987   2.050   1.404  -0.066  0.2796 -0.4527 -0.1636
  125HFI     H1 1988   2.427   1.284   0.109 -0.3334 -2.0873  0.0679
  125HFI     H2 1989   2.210   1.185  -0.022  1.5515  0.4966 -1.4067
  126HFI     O1 1990   0.427   0.018   0.041 -0.0224 -0.0479  0.3817
  126HFI     C1 1991   0.472  -0.121  -0.009 -1.3142 -0.2583  0.2780
  126HFI     C2 1992   0.537  -0.108  -0.148 -0.3210 -0.6014  0.2369
  126HFI     F1 1993   0.642  -0.022  -0.142 -0.2651 -0.2315  0.0624
  126HFI     F2 1994   0.457  -0.044  -0.238  0.1740  0.3935 -0.3919
  126HFI     F3 1995   0.586  -0.223  -0.199  0.0663  0.4479  0.3676
  126HFI     C3 1996   0.358  -0.231  -0.005  0.0011 -0.4095 -0.0418
  126HFI     F4 1997   0.260  -0.196  -0.093 -0.0229  0.1827 -0.1374
  126HFI     F5 1998   0.298  -0.226   0.124  0.5909 -0.0318 -0.6346
  126HFI     F6 1999   0.412  -0.348  -0.037  0.3506 -0.1237  0.0732
  126HFI     H1 2000   0.416   0.074  -0.038 -0.8784 -0.1788  0.4033
  126HFI     H2 2001   0.552  -0.161   0.055 -0.9372  1.2980  0.8216
  127HFI     O1 2002   0.176   2.751   2.922  0.2184 -0.2243 -0.6284
  127HFI     C1 2003   0.231   2.875   2.986 -0.4755 -0.2507 -0.1282
  127HFI     C2 2004   0.388   2.875   2.993  0.7452 -0.5808 -0.2022
  127HFI     F1 2005   0.433   2.759   3.043  0.4974 -0.2762 -0.4020
  127HFI     F2 2006   0.440   2.981   3.066  0.1071 -0.0648  0.1182
  127HFI     F3 2007   0.437   2.897   2.870 -0.3384 -0.2046  0.5469
  127HFI     C3 2008   0.163   2.895   3.127 -0.2297  0.2029  0.0778
  127HFI     F4 2009   0.033   2.890   3.112  0.3170 -0.3146  0.5601
  127HFI     F5 2010   0.190   3.021   3.164 -0.5233 -0.3024  0.7176
  127HFI     F6 2011   0.208   2.809   3.225  0.5728 -0.0410 -0.0835
  127HFI     H1 2012   0.211   2.672   2.967  0.3006 -0.3471 -0.9048
  127HFI     H2 2013   0.200   2.957   2.920  0.4023 -1.1981 -1.7271
  128HFI     O1 2014   1.023   3.173   2.859 -0.0682 -0.2050 -0.1606
  128HFI     C1 2015   1.130   3.083   2.914  0.6579  0.0039 -0.3187
  128HFI     C2 2016   1.104   2.937   2.874  0.1018  0.5243  0.5190
  128HFI     F1 2017   1.100   2.936   2.738  0.6394 -0.1729 -0.3529
  128HFI     F2 2018   0.983   2.886   2.919 -0.7412  0.0580 -0.1963
  128HFI     F3 2019   1.205   2.856   2.908 -0.8927  0.6697 -0.0051
  128HFI     C3 2020   1.135   3.098   3.067  0.2792 -0.2008 -0.2633
  128HFI     F4 2021   1.182   3.220   3.086  0.0573  0.2230  0.1930
  128HFI     F5 2022   1.214   3.009   3.134 -0.0364  0.8739 -0.6922
  128HFI     F6 2023   1.009   3.099   3.118  0.2119 -0.1109  0.1372
  128HFI     H1 2024   0.941   3.184   2.911  0.2323 -2.0974  0.7329
  128HFI     H2 2025   1.229   3.117   2.880  0.9769 -0.6760 -0.0708
  129HFI     O1 2026   1.688   1.610   2.751  0.0037 -0.0951 -0.4101
  129HFI     C1 2027   1.660   1.668   2.887  0.1427  0.6424  0.6648
  129HFI     C2 2028   1.606   1.814   2.881  0.0845 -0.5014 -0.0425
  129HFI     F1 2029   1.692   1.906   2.831  0.1253  0.6916  0.5048
  129HFI     F2 2030   1.568   1.856   3.006  0.1166  0.3004  0.3185
  129HFI     F3 2031   1.500   1.813   2.807 -0.2665  0.1652 -0.2646
  129HFI     C3 2032   1.799   1.670   2.968  0.4999 -0.2232  0.6872
  129HFI     F4 2033   1.786   1.729   3.089 -0.3144 -0.0208  0.2046
  129HFI     F5 2034   1.898   1.735   2.898 -0.9887 -0.0730  0.5323
  129HFI     F6 2035   1.846   1.542   2.991 -0.7513  0.0938 -0.4028
  129HFI     H1 2036   1.780   1.635   2.730 -0.0387 -1.7252 -2.7568
  129HFI     H2 2037   1.596   1.602   2.947  0.7561 -0.1275  0.4828
  130HFI     O1 2038   0.324   2.483   2.413 -0.2135  0.0975 -0.4297
  130HFI     C1 2039   0.357   2.623   2.435  0.4208 -0.9846 -0.4609
  130HFI     C2 2040   0.265   2.684   2.548 -0.1274  0.6053 -0.0914
  130HFI     F1 2041   0.295   2.817   2.561 -0.3744  0.3575  0.4151
  130HFI     F2 2042   0.283   2.633   2.666  0.1459 -0.1601  0.3783
  130HFI     F3 2043   0.129   2.677   2.519 -0.0066 -0.0265 -0.0475
  130HFI     C3 2044   0.350   2.693   2.296 -0.3111 -1.2393 -0.4129
  130HFI     F4 2045   0.411   2.620   2.200 -0.0638 -0.0576  0.4121
  130HFI     F5 2046   0.416   2.809   2.297  0.5171  0.3866 -0.0280
  130HFI     F6 2047   0.223   2.721   2.253  0.3813 -0.4220  0.5763
  130HFI     H1 2048   0.228   2.473   2.402 -0.0008 -1.0851 -1.2127
  130HFI     H2 2049   0.462   2.645   2.457 -0.0279 -0.5562  1.3347
  131HFI     O1 2050   0.279   0.321   0.360 -0.3285  0.8625 -0.2769
  131HFI     C1 2051   0.295   0.254   0.490  0.1105 -0.1477  0.3986
  131HFI     C2 2052   0.317   0.096   0.469  0.5377 -0.2641  0.6504
  131HFI     F1 2053   0.418   0.068   0.383 -0.4728  0.0776 -0.3585
  131HFI     F2 2054   0.208   0.040   0.415  0.0149 -0.6918  0.4541
  131HFI     F3 2055   0.339   0.033   0.590 -0.2535 -0.2951 -0.2155
  131HFI     C3 2056   0.176   0.286   0.594 -0.1919  0.9203  0.3422
  131HFI     F4 2057   0.163   0.417   0.614 -0.2533  0.1784 -0.1992
  131HFI     F5 2058   0.201   0.222   0.714  0.0146  0.5192 -0.1676
  131HFI     F6 2059   0.060   0.250   0.542 -0.1141  0.1725 -0.4178
  131HFI     H1 2060   0.244   0.257   0.295  2.1650  0.0545 -0.9060
  131HFI     H2 2061   0.388   0.286   0.539 -0.3363  3.1582 -0.7496
  132HFI     O1 2062   0.858   2.789   0.088 -0.0595 -0.2732 -0.0006
  132HFI     C1 2063   0.988   2.863   0.090 -0.1592 -0.4073 -0.0999
  132HFI     C2 2064   1.085   2.811   0.198 -0.3318  0.0838 -0.3629
  132HFI     F1 2065   1.103   2.679   0.178  0.6589 -0.1975  0.4294
  132HFI     F2 2066   1.042   2.831   0.325 -0.3599  0.2345 -0.2086
  132HFI     F3 2067   1.213   2.866   0.179 -0.0966  0.1733 -0.2768
  132HFI     C3 2068   0.975   3.021   0.091 -0.6806  0.2084 -0.0696
  132HFI     F4 2069   0.894   3.068  -0.013 -0.5440  0.4691  0.2143
  132HFI     F5 2070   1.095   3.085   0.079 -0.4875  0.2685  0.1847
  132HFI     F6 2071   0.920   3.058   0.208  0.2434  0.5905 -0.0258
  132HFI     H1 2072   0.870   2.693   0.087  0.8265 -0.1664 -1.4608
  132HFI     H2 2073   1.042   2.842  -0.003  3.3391  0.7062  1.5850
  133HFI     O1 2074   1.240   0.327   2.281 -0.3401  0.2575 -0.4146
  133HFI     C1 2075   1.375   0.280   2.276 -0.3491  0.1938  0.6509
  133HFI     C2 2076   1.384   0.127   2.300  0.4465 -0.2099 -0.2498
  133HFI     F1 2077   1.495   0.075   2.252  0.6373 -0.7972  0.2702
  133HFI     F2 2078   1.280   0.059   2.238  0.0811 -0.0686 -0.3320
  133HFI     F3 2079   1.375   0.097   2.440 -0.2604  0.0106  0.7005
  133HFI     C3 2080   1.472   0.361   2.363 -0.4385  0.3474  0.8474
  133HFI     F4 2081   1.477   0.490   2.314  0.5947 -0.3651 -0.3204
  133HFI     F5 2082   1.591   0.305   2.360 -0.0273 -0.3473  0.0061
  133HFI     F6 2083   1.436   0.368   2.492 -0.6457  0.3100  0.4000
  133HFI     H1 2084   1.185   0.261   2.326 -1.2706  1.0086 -0.4156
  133HFI     H2 2085   1.421   0.287   2.176  4.1306  0.5461  2.6127
  134HFI     O1 2086   1.750   2.561   0.869 -0.0871  0.1422 -0.5112
  134HFI     C1 2087   1.893   2.545   0.907 -0.4724  0.3150 -0.5763
  134HFI     C2 2088   1.988   2.508   0.786 -0.4352 -0.6932 -0.1153
  134HFI     F1 2089   2.033   2.625   0.716 -0.1816 -0.0204 -0.3453
  134HFI     F2 2090   1.927   2.425   0.696 -0.5558 -0.0065  0.4059
  134HFI     F3 2091   2.099   2.438   0.822 -0.5496 -0.0997 -0.1309
  134HFI     C3 2092   1.915   2.456   1.038  0.2585  0.0173 -0.1372
  134HFI     F4 2093   2.035   2.468   1.090  0.2341 -0.2708  0.3335
  134HFI     F5 2094   1.899   2.325   1.000  0.4599 -0.7798 -0.0186
  134HFI     F6 2095   1.823   2.481   1.130 -0.0336 -0.1601  0.7243
  134HFI     H1 2096   1.725   2.484   0.815 -1.8093  0.8422 -0.7548
  134HFI     H2 2097   1.933   2.637   0.953 -0.0813 -0.8744  1.5166
  135HFI     O1 2098   2.516   1.577   2.484  0.0098  0.4061  0.1725
  135HFI     C1 2099   2.420   1.622   2.380  0.1518 -0.2825 -0.0725
  135HFI     C2 2100   2.348   1.496   2.321 -0.1649  0.3016 -0.0450
  135HFI     F1 2101   2.429   1.400   2.281  0.6076 -0.4871  0.1423
  135HFI     F2 2102   2.286   1.529   2.203 -0.0049 -0.2508 -0.5384
  135HFI     F3 2103   2.259   1.437   2.393  0.4536 -0.0579 -0.0962
  135HFI     C3 2104   2.501   1.700   2.278  0.1154  0.3583 -0.6195
  135HFI     F4 2105   2.421   1.767   2.196 -0.2855 -0.5168  0.1088
  135HFI     F5 2106   2.583   1.620   2.207  0.4912 -0.4238 -0.0704
  135HFI     F6 2107   2.573   1.790   2.344  0.0834 -0.7559  0.4103
  135HFI     H1 2108   2.592   1.524   2.454 -0.3133  0.0980 -0.0971
  135HFI     H2 2109   2.342   1.686   2.422 -0.4708 -1.2903  0.3473
  136HFI     O1 2110   0.618   1.386   2.717  0.1416  0.2384 -0.4677
  136HFI     C1 2111   0.594   1.485   2.817  0.0492 -0.4759  0.0892
  136HFI     C2 2112   0.492   1.426   2.913 -0.1863 -0.3028 -0.8428
  136HFI     F1 2113   0.547   1.328   2.986  0.3642 -0.2091  0.7374
  136HFI     F2 2114   0.376   1.376   2.857 -0.2009  0.1259 -0.1500
  136HFI     F3 2115   0.449   1.520   3.002 -0.7645 -0.3773 -0.2535
  136HFI     C3 2116   0.561   1.625   2.752  0.7679  0.1739 -0.0934
  136HFI     F4 2117   0.645   1.656   2.646  0.6576  0.1491 -0.0048
  136HFI     F5 2118   0.573   1.724   2.851  0.2371  0.1580  0.1440
  136HFI     F6 2119   0.435   1.633   2.699  0.5370 -0.2515  0.8694
  136HFI     H1 2120   0.658   1.430   2.640 -0.2472  1.2743 -0.0841
  136HFI     H2 2121   0.687   1.487   2.876 -1.5031 -0.3303  2.5848
  137HFI     O1 2122   0.770   0.916   2.290  0.1085  0.6659 -0.4758
  137HFI     C1 2123   0.803   1.024   2.384  0.0420 -0.1602 -0.9962
  137HFI     C2 2124   0.762   0.998   2.531  1.5057 -0.0502  0.2017
  137HFI     F1 2125   0.809   1.085   2.622 -0.3919  0.1042 -0.3652
  137HFI     F2 2126   0.794   0.873   2.575 -0.1418  0.2241  0.0912
  137HFI     F3 2127   0.628   1.007   2.542 -0.3164  0.3567 -0.3846
  137HFI     C3 2128   0.740   1.160   2.336 -0.4070  0.1346  0.1982
  137HFI     F4 2129   0.806   1.205   2.222  0.1337  0.0792 -0.1406
  137HFI     F5 2130   0.765   1.254   2.436  0.4098 -0.0403 -0.1454
  137HFI     F6 2131   0.610   1.152   2.308  0.2038 -0.4710 -0.1961
  137HFI     H1 2132   0.812   0.832   2.317 -1.3169 -0.6696 -2.2219
  137HFI     H2 2133   0.912   1.025   2.393  0.1028  1.1020 -1.8069
  138HFI     O1 2134   3.050   0.746   2.549  0.4860  0.1864 -0.1289
  138HFI     C1 2135   3.153   0.700   2.451 -0.6934  0.2749  0.4146
  138HFI     C2 2136   3.285   0.791   2.461  0.1602  0.6645  0.4899
  138HFI     F1 2137   3.381   0.732   2.382  0.0048 -0.2171  0.0287
  138HFI     F2 2138   3.329   0.797   2.591 -0.4993  0.5497  0.0601
  138HFI     F3 2139   3.265   0.920   2.423 -0.4912 -0.0174  0.4799
  138HFI     C3 2140   3.108   0.681   2.307  0.1210 -0.4273 -0.3624
  138HFI     F4 2141   3.065   0.791   2.253 -0.0800  0.2959 -0.3314
  138HFI     F5 2142   3.008   0.590   2.306 -0.2615  0.3972  0.0351
  138HFI     F6 2143   3.205   0.624   2.240 -0.0038  0.1848  0.0934
  138HFI     H1 2144   2.985   0.796   2.497 -0.3665 -0.9599 -0.1867
  138HFI     H2 2145   3.191   0.602   2.481  0.3812 -0.1404 -2.1349
  139HFI     O1 2146   0.323   2.477   0.174  0.0333  0.4954  0.5560
  139HFI     C1 2147   0.449   2.550   0.147 -0.2655 -0.5616  0.1313
  139HFI     C2 2148   0.473   2.547  -0.008 -0.0670  0.1301 -0.4199
  139HFI     F1 2149   0.463   2.417  -0.049  0.2911 -0.3996 -0.5583
  139HFI     F2 2150   0.590   2.601  -0.043  0.0352  0.0757 -0.5318
  139HFI     F3 2151   0.368   2.610  -0.064  0.5942  0.1281  0.1021
  139HFI     C3 2152   0.574   2.483   0.222  0.2429 -0.5027  0.4978
  139HFI     F4 2153   0.688   2.542   0.202 -0.5636  0.1015 -0.2560
  139HFI     F5 2154   0.583   2.354   0.200  0.2237  0.3023 -0.2871
  139HFI     F6 2155   0.545   2.493   0.363  0.1331  0.0700 -0.7099
  139HFI     H1 2156   0.315   2.396   0.121  2.2512 -0.3735  1.4972
  139HFI     H2 2157   0.446   2.651   0.191 -0.1456 -0.9477  1.0495
  140HFI     O1 2158   3.100   0.803   0.391 -0.0428  0.0799 -0.6269
  140HFI     C1 2159   3.168   0.888   0.498  0.1255  0.1793 -0.1467
  140HFI     C2 2160   3.201   0.819   0.633 -0.2575  0.5081 -0.1049
  140HFI     F1 2161   3.275   0.710   0.604 -0.4175  0.1479  0.1571
  140HFI     F2 2162   3.081   0.775   0.696 -0.1988  0.7969  0.3015
  140HFI     F3 2163   3.275   0.892   0.715 -0.1297 -0.0006 -0.1089
  140HFI     C3 2164   3.088   1.018   0.517 -0.0182  0.6321  0.4246
  140HFI     F4 2165   2.972   0.991   0.573  0.0318 -0.1305 -0.6199
  140HFI     F5 2166   3.062   1.081   0.401 -0.2381 -0.0275 -0.3790
  140HFI     F6 2167   3.152   1.109   0.599 -0.8018  0.0555  0.7032
  140HFI     H1 2168   3.019   0.846   0.359  0.8431  1.2032 -1.3816
  140HFI     H2 2169   3.265   0.921   0.460  1.4360 -2.0820  1.1890
  141HFI     O1 2170   2.871   1.060   3.305  0.0547 -1.1458 -0.1249
  141HFI     C1 2171   2.889   1.189   3.376 -0.2412  0.3085 -0.0278
  141HFI     C2 2172   2.765   1.279   3.362 -0.9237 -0.5302  0.6276
  141HFI     F1 2173   2.762   1.376   3.452 -0.4243 -0.0844  0.5061
  141HFI     F2 2174   2.657   1.201   3.370  0.0323  0.1182  0.0610
  141HFI     F3 2175   2.764   1.341   3.239  0.0198 -0.0373 -0.1683
  141HFI     C3 2176   3.028   1.253   3.343  0.1277  0.3248 -0.1288
  141HFI     F4 2177   3.044   1.371   3.395  0.2924 -0.3934 -0.5957
  141HFI     F5 2178   3.041   1.258   3.210 -0.1831 -0.2244 -0.0845
  141HFI     F6 2179   3.126   1.168   3.381  0.0888 -0.1669 -0.1432
  141HFI     H1 2180   2.838   1.074   3.214  1.2960  1.1471 -0.2685
  141HFI     H2 2181   2.898   1.165   3.482  2.0230 -0.8703 -0.4571
  142HFI     O1 2182   1.146   2.369   3.172  0.2193 -0.0521 -0.2931
  142HFI     C1 2183   1.207   2.506   3.179  0.4244 -0.1363  0.1322
  142HFI     C2 2184   1.092   2.607   3.131 -0.3501  0.3856  0.8525
  142HFI     F1 2185   0.987   2.589   3.205 -0.4817  0.5310 -0.0013
  142HFI     F2 2186   1.051   2.568   3.003 -0.3135 -0.6658  0.7975
  142HFI     F3 2187   1.126   2.731   3.143  0.7021 -0.3297 -0.7577
  142HFI     C3 2188   1.336   2.518   3.093  0.0810  0.7969 -0.1985
  142HFI     F4 2189   1.385   2.642   3.101  0.0432 -0.1883  0.3901
  142HFI     F5 2190   1.315   2.475   2.968  0.0267 -0.4861  0.3717
  142HFI     F6 2191   1.425   2.433   3.147  0.3931  0.4842  0.5134
  142HFI     H1 2192   1.101   2.358   3.087  1.1421 -0.4606 -0.7378
  142HFI     H2 2193   1.233   2.528   3.283  0.3210  0.2729  0.0744
  143HFI     O1 2194   2.297   1.549   2.768  0.4305  0.0330  0.3396
  143HFI     C1 2195   2.256   1.413   2.755  0.8846  0.6054  0.1781
  143HFI     C2 2196   2.134   1.375   2.839 -0.1553 -0.3201 -0.0083
  143HFI     F1 2197   2.172   1.352   2.968 -0.0764  0.6409  0.1033
  143HFI     F2 2198   2.078   1.266   2.787  0.4643  0.2338 -0.4642
  143HFI     F3 2199   2.041   1.478   2.833 -0.2894  0.0906  0.6615
  143HFI     C3 2200   2.368   1.303   2.774 -0.3767 -0.0212  0.5267
  143HFI     F4 2201   2.416   1.315   2.903  0.3773 -0.6729 -0.1327
  143HFI     F5 2202   2.464   1.328   2.684  0.5011  0.0245 -0.2313
  143HFI     F6 2203   2.319   1.180   2.759  0.2767  0.4313  0.0285
  143HFI     H1 2204   2.224   1.610   2.750 -0.5981 -1.2284  0.1780
  143HFI     H2 2205   2.227   1.399   2.650 -0.4550  1.1720  0.4706
  144HFI     O1 2206   1.738   2.822   1.122 -0.5655  0.5176 -0.0224
  144HFI     C1 2207   1.641   2.921   1.095 -0.4285 -0.1947 -0.1619
  144HFI     C2 2208   1.628   2.941   0.943  0.8276 -0.6732 -0.3988
  144HFI     F1 2209   1.580   2.829   0.884 -0.3706  0.3692 -0.1886
  144HFI     F2 2210   1.751   2.965   0.889  0.6364 -0.1983  0.4031
  144HFI     F3 2211   1.531   3.035   0.905  0.3253 -0.1519  0.0656
  144HFI     C3 2212   1.680   3.049   1.173 -0.0302  0.4865  0.0909
  144HFI     F4 2213   1.799   3.093   1.131 -0.3951 -0.1316  0.6337
  144HFI     F5 2214   1.683   3.033   1.309 -0.0217  0.2702  0.1115
  144HFI     F6 2215   1.587   3.146   1.149  0.3290  0.0164  0.0067
  144HFI     H1 2216   1.829   2.854   1.119  0.0518 -1.0018  1.2377
  144HFI     H2 2217   1.544   2.894   1.139 -0.7989 -1.0246 -1.4474
  145HFI     O1 2218   3.082   1.563   0.010  0.4772  0.2620 -0.3010
  145HFI     C1 2219   3.160   1.637   0.120 -0.6314  0.3174  0.5098
  145HFI     C2 2220   3.266   1.730   0.058  0.0373 -0.1919  0.5852
  145HFI     F1 2221   3.374   1.663   0.014 -0.7241  0.1214  0.0855
  145HFI     F2 2222   3.316   1.823   0.140 -0.0350 -0.2118 -0.1473
  145HFI     F3 2223   3.208   1.804  -0.046 -0.2784 -0.1050 -0.0896
  145HFI     C3 2224   3.197   1.554   0.246 -0.0094 -0.0571  0.0766
  145HFI     F4 2225   3.256   1.445   0.203 -0.0282  0.2256 -0.3186
  145HFI     F5 2226   3.084   1.513   0.307  0.2247  0.3841 -0.0474
  145HFI     F6 2227   3.278   1.617   0.328 -0.1435 -0.2962 -0.0802
  145HFI     H1 2228   3.133   1.482  -0.007  0.8189  0.5322 -0.5748
  145HFI     H2 2229   3.088   1.709   0.161 -3.2229 -1.7448 -0.2515
  146HFI     O1 2230   3.091   2.255   2.713  0.2246  0.6706 -0.3575
  146HFI     C1 2231   2.990   2.204   2.806 -0.0236  0.4282 -0.3904
  146HFI     C2 2232   3.010   2.046   2.828  0.4865 -0.3989 -0.9236
  146HFI     F1 2233   3.052   1.994   2.712 -0.2208  0.2445 -0.0381
  146HFI     F2 2234   2.895   1.985   2.871  0.2753  0.0444 -0.4728
  146HFI     F3 2235   3.104   2.026   2.919 -0.3032  0.3781  0.5950
  146HFI     C3 2236   2.840   2.250   2.765  0.4289  0.4171  0.1105
  146HFI     F4 2237   2.791   2.177   2.658  0.1029 -0.1933  0.0740
  146HFI     F5 2238   2.849   2.376   2.732 -0.2514  0.1240  0.1109
  146HFI     F6 2239   2.750   2.239   2.860  0.9260 -0.1870  0.2146
  146HFI     H1 2240   3.088   2.205   2.630 -0.6272 -0.6525  0.4523
  146HFI     H2 2241   3.020   2.244   2.904  4.2775 -0.8585 -1.0485
  147HFI     O1 2242   0.540   0.416   2.445 -0.2130  0.2040 -0.2096
  147HFI     C1 2243   0.688   0.424   2.464  0.1893 -0.1968  0.1185
  147HFI     C2 2244   0.723   0.482   2.601  1.2997 -0.0268 -0.6553
  147HFI     F1 2245   0.686   0.400   2.702  0.3280 -0.1155  0.2388
  147HFI     F2 2246   0.660   0.605   2.625 -0.1601  0.5301  0.4745
  147HFI     F3 2247   0.857   0.501   2.612 -0.2932 -1.1140 -0.0267
  147HFI     C3 2248   0.747   0.498   2.344  0.5297 -0.0787 -0.2914
  147HFI     F4 2249   0.863   0.439   2.307 -0.1703  0.1490 -0.0958
  147HFI     F5 2250   0.782   0.630   2.371  0.2776 -0.3154 -0.1484
  147HFI     F6 2251   0.665   0.497   2.246 -0.0741  0.0158 -0.4296
  147HFI     H1 2252   0.513   0.331   2.405  0.2175  0.3001 -0.7050
  147HFI     H2 2253   0.743   0.329   2.468  0.8201  0.0293 -2.1420
  148HFI     O1 2254   1.180   0.399   2.776 -0.1896 -0.1432  0.1542
  148HFI     C1 2255   1.163   0.269   2.841  0.1092  0.0510 -0.0693
  148HFI     C2 2256   1.221   0.276   2.992 -0.1568 -0.0152 -0.4501
  148HFI     F1 2257   1.351   0.320   2.991 -0.0016  0.2363 -0.6466
  148HFI     F2 2258   1.217   0.161   3.057 -0.2234 -0.4282 -0.2525
  148HFI     F3 2259   1.142   0.361   3.064  0.1189  0.3146 -0.1806
  148HFI     C3 2260   1.229   0.149   2.756 -0.1812  0.3820  0.2340
  148HFI     F4 2261   1.361   0.144   2.744  0.1056  0.5016 -0.3824
  148HFI     F5 2262   1.180   0.173   2.631  0.4206  0.2975  0.2728
  148HFI     F6 2263   1.174   0.032   2.794 -0.3426  0.1158  0.1702
  148HFI     H1 2264   1.153   0.461   2.845  1.7047  1.9165 -0.8968
  148HFI     H2 2265   1.057   0.244   2.850  0.1926  0.0992  1.1219
  149HFI     O1 2266   2.287   2.117   3.793 -0.1818  0.6885  0.5750
  149HFI     C1 2267   2.321   2.077   3.652  0.5467  0.0842  0.2004
  149HFI     C2 2268   2.359   2.209   3.566  0.3675  0.3550 -0.2905
  149HFI     F1 2269   2.265   2.302   3.566  0.0305  0.6995  0.0420
  149HFI     F2 2270   2.404   2.190   3.441 -0.3021 -0.1123 -0.2381
  149HFI     F3 2271   2.455   2.268   3.629  0.4427 -0.1792 -0.0688
  149HFI     C3 2272   2.212   1.996   3.593  0.1497  0.0366 -0.1477
  149HFI     F4 2273   2.184   1.898   3.678  0.2400 -0.4151 -0.3057
  149HFI     F5 2274   2.245   1.944   3.477 -0.1842 -0.0536 -0.5797
  149HFI     F6 2275   2.094   2.063   3.579  0.2502  0.0207  0.2395
  149HFI     H1 2276   2.260   2.210   3.791 -1.1977  0.3915 -3.0878
  149HFI     H2 2277   2.410   2.013   3.649  0.1695 -0.4303  0.1102
  150HFI     O1 2278   2.179   0.593   2.614  0.0786  0.0772 -0.2528
  150HFI     C1 2279   2.166   0.694   2.719  0.1210  0.0383 -0.0384
  150HFI     C2 2280   2.218   0.827   2.663 -0.6860 -0.1705 -0.4155
  150HFI     F1 2281   2.121   0.921   2.689 -0.1761  0.0231  0.4988
  150HFI     F2 2282   2.243   0.835   2.527  0.2292 -0.1070  0.2561
  150HFI     F3 2283   2.327   0.869   2.727  0.1697  0.0291  0.6096
  150HFI     C3 2284   2.221   0.659   2.858 -0.0978  0.4327 -0.0878
  150HFI     F4 2285   2.174   0.541   2.908  0.0376 -0.0214  0.1613
  150HFI     F5 2286   2.192   0.749   2.954 -0.1705 -0.0639 -0.1993
  150HFI     F6 2287   2.354   0.651   2.847  0.4933 -0.5376  0.1353
  150HFI     H1 2288   2.259   0.539   2.626 -0.8428 -1.2995 -0.1327
  150HFI     H2 2289   2.061   0.712   2.745 -0.4275 -0.2010 -2.0247
  151HFI     O1 2290   2.656   3.239   0.992 -0.0317  0.0821 -0.0824
  151HFI     C1 2291   2.794   3.273   0.944 -0.2652 -0.1849 -0.2226
  151HFI     C2 2292   2.840   3.403   1.014  0.5318  0.2367  0.0046
  151HFI     F1 2293   2.967   3.426   0.996 -0.5457 -0.2361 -0.0999
  151HFI     F2 2294   2.817   3.405   1.148  0.2508  0.3833  0.2340
  151HFI     F3 2295   2.781   3.509   0.961  0.0190 -0.1608 -0.2693
  151HFI     C3 2296   2.821   3.272   0.787  1.0518 -0.0850 -0.8813
  151HFI     F4 2297   2.852   3.145   0.751 -0.3595 -0.2813  0.3159
  151HFI     F5 2298   2.921   3.357   0.742 -0.3640  0.4562 -0.6180
  151HFI     F6 2299   2.710   3.309   0.721  0.1014 -0.3184 -0.0020
  151HFI     H1 2300   2.590   3.276   0.931 -0.7407 -2.4232 -0.9140
  151HFI     H2 2301   2.866   3.198   0.979  1.6269  1.8808  0.4236
  152HFI     O1 2302   1.701   1.809   3.473  0.1894 -0.0919 -0.1963
  152HFI     C1 2303   1.750   1.802   3.611  0.8605  0.3084  1.2011
  152HFI     C2 2304   1.814   1.670   3.645 -0.0151 -0.0088  0.1016
  152HFI     F1 2305   1.888   1.673   3.758 -0.1050  0.3662  0.0033
  152HFI     F2 2306   1.896   1.645   3.545 -0.4063 -0.3134 -0.2716
  152HFI     F3 2307   1.726   1.566   3.653 -0.1811  0.8904 -0.3595
  152HFI     C3 2308   1.633   1.836   3.704 -0.3068  0.1059 -0.3794
  152HFI     F4 2309   1.527   1.743   3.697  0.2823 -0.0332  0.0342
  152HFI     F5 2310   1.586   1.959   3.669 -0.4670 -0.1611  0.5269
  152HFI     F6 2311   1.678   1.850   3.832 -0.3044 -0.0353 -0.0398
  152HFI     H1 2312   1.765   1.768   3.413  0.4133 -0.0716  0.0270
  152HFI     H2 2313   1.827   1.879   3.624  1.2938  0.2568 -0.8253
  153HFI     O1 2314   0.706   0.940   0.254 -0.5203 -0.7445  0.1882
  153HFI     C1 2315   0.837   0.973   0.312 -0.2330 -0.4982  0.4227
  153HFI     C2 2316   0.813   1.085   0.412  0.3102 -0.0935 -0.2886
  153HFI     F1 2317   0.747   1.186   0.353 -0.3359 -0.2085  0.0965
  153HFI     F2 2318   0.925   1.138   0.474 -0.3373 -0.2757 -0.0276
  153HFI     F3 2319   0.728   1.043   0.511  0.4450  0.2130 -0.3834
  153HFI     C3 2320   0.941   1.018   0.207 -0.0407  0.2556 -0.3036
  153HFI     F4 2321   0.952   0.927   0.100  0.2271  0.6211  0.3756
  153HFI     F5 2322   1.064   1.021   0.267 -0.3184 -0.4000 -0.3421
  153HFI     F6 2323   0.912   1.144   0.157  0.6928 -0.3836  0.1103
  153HFI     H1 2324   0.700   1.010   0.186  0.2167 -1.4516 -0.6194
  153HFI     H2 2325   0.879   0.887   0.366  0.4440 -1.2116 -1.2158
  154HFI     O1 2326   2.723   2.808   3.335  0.2052  0.0668 -0.1569
  154HFI     C1 2327   2.868   2.792   3.373  0.2421 -0.7773  0.0416
  154HFI     C2 2328   2.922   2.651   3.333  0.0943  0.0957  0.0001
  154HFI     F1 2329   2.925   2.630   3.205 -0.2036  0.7952 -0.2201
  154HFI     F2 2330   2.852   2.556   3.393 -0.0768 -0.2089 -0.2275
  154HFI     F3 2331   3.049   2.635   3.367  0.5992 -0.5035 -0.0652
  154HFI     C3 2332   2.897   2.827   3.517 -0.3872 -0.2141 -0.6874
  154HFI     F4 2333   3.029   2.833   3.547  0.2492  0.4977  0.1861
  154HFI     F5 2334   2.839   2.740   3.605  0.0971 -0.0842  0.3842
  154HFI     F6 2335   2.850   2.948   3.549  0.5783 -0.4532 -0.0439
  154HFI     H1 2336   2.708   2.904   3.339 -0.5780 -0.0985  1.0215
  154HFI     H2 2337   2.933   2.859   3.315 -3.1940  2.7318 -0.0163
  155HFI     O1 2338   0.139   0.560   2.662  0.1342 -0.1484  0.1364
  155HFI     C1 2339   0.085   0.436   2.724  0.1152 -0.3866  0.1539
  155HFI     C2 2340  -0.049   0.460   2.808 -1.1157 -0.6847  0.0501
  155HFI     F1 2341  -0.131   0.509   2.718  0.2900 -0.0249 -0.2307
  155HFI     F2 2342  -0.023   0.549   2.908  0.4213 -0.6213 -0.2004
  155HFI     F3 2343  -0.102   0.354   2.859  0.4131  0.2678 -0.2374
  155HFI     C3 2344   0.187   0.357   2.805  0.0802 -0.3933 -0.7357
  155HFI     F4 2345   0.299   0.336   2.739  0.0121  0.3427  0.5573
  155HFI     F5 2346   0.145   0.235   2.852  0.5713  0.2514  0.3327
  155HFI     F6 2347   0.217   0.415   2.922 -0.5205  0.0528  0.0109
  155HFI     H1 2348   0.223   0.576   2.708 -0.1399 -0.0497  0.6098
  155HFI     H2 2349   0.049   0.374   2.642  0.2317 -0.3299  0.0605
  156HFI     O1 2350   2.905   0.828   3.545  0.7681  0.1558  0.2300
  156HFI     C1 2351   2.785   0.767   3.510 -0.0921  0.2032 -0.1234
  156HFI     C2 2352   2.671   0.832   3.587  0.1606 -0.2721  0.1502
  156HFI     F1 2353   2.669   0.973   3.581 -0.1071 -0.9564  0.0977
  156HFI     F2 2354   2.678   0.799   3.718  0.3623 -0.7330  0.3721
  156HFI     F3 2355   2.549   0.791   3.553  0.0242 -0.4057 -0.1010
  156HFI     C3 2356   2.790   0.610   3.512  0.7954  0.2826 -0.3020
  156HFI     F4 2357   2.820   0.571   3.637  0.0051  0.2831  0.8370
  156HFI     F5 2358   2.882   0.560   3.424  0.5004 -0.6324 -0.2543
  156HFI     F6 2359   2.674   0.553   3.478 -0.2448 -0.6897  0.1148
  156HFI     H1 2360   2.921   0.840   3.640 -0.1233  0.4610  0.3463
  156HFI     H2 2361   2.761   0.795   3.407  0.0281  3.3302  0.6426
  157HFI     O1 2362   0.312   1.339   0.873 -0.0623 -0.3500 -0.5286
  157HFI     C1 2363   0.421   1.261   0.919  0.2209 -0.8330 -0.0331
  157HFI     C2 2364   0.485   1.176   0.803  1.0911  0.7239  0.5692
  157HFI     F1 2365   0.601   1.128   0.852  0.2181  0.0010  0.4927
  157HFI     F2 2366   0.510   1.252   0.692  0.8169 -0.4520  0.0985
  157HFI     F3 2367   0.415   1.061   0.771  0.5079  0.2138 -0.2953
  157HFI     C3 2368   0.397   1.182   1.045  0.4694  0.5211  0.6187
  157HFI     F4 2369   0.515   1.172   1.106  0.1458 -0.1554  0.1107
  157HFI     F5 2370   0.343   1.057   1.022  0.1429 -0.1358  0.1477
  157HFI     F6 2371   0.316   1.250   1.132 -0.5629 -0.2079 -0.2483
  157HFI     H1 2372   0.250   1.350   0.947  1.6573  2.6004  0.5693
  157HFI     H2 2373   0.504   1.330   0.937  0.0522 -1.1247  1.9437
  158HFI     O1 2374   1.116   3.200   2.535 -0.2599 -0.2522  0.5103
  158HFI     C1 2375   1.237   3.193   2.453  0.1466 -0.1389 -0.5647
  158HFI     C2 2376   1.233   3.146   2.301 -0.5319  0.0314  0.1372
  158HFI     F1 2377   1.150   3.217   2.228  0.0405 -0.7201 -0.2176
  158HFI     F2 2378   1.204   3.019   2.291  0.2876  0.1228 -0.1627
  158HFI     F3 2379   1.360   3.148   2.240  0.2593  0.5492  0.3481
  158HFI     C3 2380   1.350   3.129   2.534  0.2200  0.2773 -0.4238
  158HFI     F4 2381   1.323   2.995   2.549 -0.4985 -0.3828  0.0004
  158HFI     F5 2382   1.357   3.199   2.651  0.1363  0.2203 -0.0694
  158HFI     F6 2383   1.472   3.137   2.471 -0.0550  0.1891  0.1991
  158HFI     H1 2384   1.057   3.127   2.508  0.3777  0.4949 -3.1714
  158HFI     H2 2385   1.264   3.298   2.435 -0.8042  0.1025 -0.6202
  159HFI     O1 2386   3.259   1.538   1.031  0.1895  0.0166  0.2360
  159HFI     C1 2387   3.346   1.638   0.969  0.0737 -0.8471  0.2805
  159HFI     C2 2388   3.498   1.645   1.021 -0.0608 -0.6021  0.0006
  159HFI     F1 2389   3.494   1.656   1.157  0.3578 -0.3658  0.1599
  159HFI     F2 2390   3.571   1.747   0.983 -0.3146  0.6809  0.3108
  159HFI     F3 2391   3.568   1.531   0.999  0.0106  0.0056 -0.7241
  159HFI     C3 2392   3.284   1.773   0.949 -0.1113  0.5027  0.2434
  159HFI     F4 2393   3.350   1.850   0.861  0.0234  0.7521  0.0482
  159HFI     F5 2394   3.269   1.847   1.067 -0.1374 -0.0008 -0.6345
  159HFI     F6 2395   3.158   1.760   0.902 -0.1446  0.4033  0.2322
  159HFI     H1 2396   3.262   1.540   1.128 -0.1749  1.0438  0.2371
  159HFI     H2 2397   3.370   1.597   0.870  0.5359  1.6642 -0.6952
  160HFI     O1 2398   1.722   1.199   0.235  0.2596  0.2338 -0.4041
  160HFI     C1 2399   1.662   1.230   0.112 -0.8210 -0.6369 -0.2537
  160HFI     C2 2400   1.521   1.308   0.127 -0.4849 -0.0467 -0.9483
  160HFI     F1 2401   1.524   1.381   0.243 -0.1959  0.5156  0.0350
  160HFI     F2 2402   1.415   1.224   0.145 -0.0168 -0.4163  0.0064
  160HFI     F3 2403   1.493   1.396   0.025 -0.5558  0.5307 -0.1205
  160HFI     C3 2404   1.660   1.106   0.019 -0.1398 -0.2898  0.3012
  160HFI     F4 2405   1.788   1.062   0.002  0.0681 -0.1920  0.0685
  160HFI     F5 2406   1.612   1.135  -0.106  0.2698 -0.2017 -0.3472
  160HFI     F6 2407   1.584   1.004   0.076  0.0816 -0.6027 -0.2249
  160HFI     H1 2408   1.678   1.251   0.304  0.6598 -0.4182  0.3543
  160HFI     H2 2409   1.723   1.299   0.053 -0.4405  0.9921  1.9950
  161HFI     O1 2410   0.713   3.110   2.896 -0.4576 -0.7484 -0.2141
  161HFI     C1 2411   0.614   3.217   2.925  0.3339 -0.3126 -0.3620
  161HFI     C2 2412   0.594   3.309   2.804  0.4808  0.1451 -0.3975
  161HFI     F1 2413   0.474   3.367   2.828 -0.3460 -0.1601 -0.4738
  161HFI     F2 2414   0.574   3.244   2.686  0.4861 -0.1218  0.1345
  161HFI     F3 2415   0.694   3.403   2.788 -0.1563  0.0570  0.3753
  161HFI     C3 2416   0.640   3.291   3.056  0.6139  0.1063  0.5676
  161HFI     F4 2417   0.527   3.352   3.108 -0.7665  0.1532  0.3572
  161HFI     F5 2418   0.747   3.379   3.057 -0.1413 -0.2571  0.2844
  161HFI     F6 2419   0.677   3.199   3.148  0.4041 -0.3458  0.3090
  161HFI     H1 2420   0.741   3.061   2.976 -0.9699 -1.3265 -0.3808
  161HFI     H2 2421   0.517   3.172   2.948 -0.4194  0.2033 -2.4399
  162HFI     O1 2422   3.009   0.580   2.838  0.1498  0.1834  0.1783
  162HFI     C1 2423   2.902   0.478   2.824  0.9752 -0.1933  0.5520
  162HFI     C2 2424   2.924   0.378   2.702  0.1004 -0.3987 -0.1813
  162HFI     F1 2425   2.842   0.268   2.698 -0.3760  0.1838 -0.4432
  162HFI     F2 2426   3.050   0.330   2.704  0.3256  0.2633  0.2531
  162HFI     F3 2427   2.902   0.441   2.584 -0.3710  0.1816 -0.1718
  162HFI     C3 2428   2.764   0.545   2.812  0.2691 -0.0616  0.2158
  162HFI     F4 2429   2.674   0.452   2.833  0.0567 -0.0377 -0.0451
  162HFI     F5 2430   2.739   0.605   2.696  0.0480 -0.3743 -0.1468
  162HFI     F6 2431   2.752   0.637   2.909  0.1183 -0.4247  0.0153
  162HFI     H1 2432   3.037   0.617   2.753 -1.1760  1.9356  0.4745
  162HFI     H2 2433   2.897   0.408   2.907 -1.4715 -2.1607 -1.1867
  163HFI     O1 2434   0.298   3.151   2.466  0.1932  0.1864 -0.3139
  163HFI     C1 2435   0.228   3.268   2.398 -0.0246  0.1277 -0.1740
  163HFI     C2 2436   0.247   3.260   2.243 -0.3117 -0.0625 -0.1971
  163HFI     F1 2437   0.249   3.133   2.201 -0.2063  0.6172  0.4309
  163HFI     F2 2438   0.356   3.325   2.194 -0.0312  0.1556 -0.0611
  163HFI     F3 2439   0.143   3.323   2.193  0.1345 -0.4309 -0.3460
  163HFI     C3 2440   0.268   3.408   2.467  0.1028 -0.0782 -0.3666
  163HFI     F4 2441   0.208   3.511   2.391  0.5093 -0.4766 -0.6633
  163HFI     F5 2442   0.401   3.412   2.466 -0.1000 -0.2903 -0.1345
  163HFI     F6 2443   0.216   3.410   2.591 -0.1725 -0.3248 -0.1549
  163HFI     H1 2444   0.270   3.073   2.415  0.3134 -0.4659  0.5993
  163HFI     H2 2445   0.121   3.258   2.420  0.4313 -0.3499  1.9577
  164HFI     O1 2446   2.232   2.984   0.699  0.2037  0.0385 -0.1335
  164HFI     C1 2447   2.158   3.031   0.823 -0.0385 -0.2660 -0.0359
  164HFI     C2 2448   2.203   3.171   0.875  0.0078 -0.0869  0.2054
  164HFI     F1 2449   2.186   3.266   0.783  0.2008  0.0235 -0.4501
  164HFI     F2 2450   2.323   3.185   0.915  0.0767 -0.1704  0.4315
  164HFI     F3 2451   2.131   3.201   0.981  0.0190 -0.2944 -0.2082
  164HFI     C3 2452   2.153   2.920   0.933  0.1410  0.1336  0.2347
  164HFI     F4 2453   2.025   2.904   0.964 -0.4143 -0.2906  0.4042
  164HFI     F5 2454   2.222   2.952   1.046 -0.4336 -0.0069 -0.0856
  164HFI     F6 2455   2.197   2.798   0.892  0.5945  0.0565 -0.0609
  164HFI     H1 2456   2.277   2.901   0.721 -0.8051 -0.3564  0.4572
  164HFI     H2 2457   2.059   3.053   0.783 -0.4650 -0.7883  0.7322
  165HFI     O1 2458   0.334   1.191   2.466  0.6782  0.2340  0.1668
  165HFI     C1 2459   0.255   1.292   2.406  0.5340 -0.0557  0.8890
  165HFI     C2 2460   0.147   1.229   2.312 -0.0518  0.1763 -0.2004
  165HFI     F1 2461   0.075   1.322   2.237 -0.4618  0.4163 -0.6609
  165HFI     F2 2462   0.052   1.159   2.379 -0.5382 -0.3676  0.3605
  165HFI     F3 2463   0.201   1.147   2.223 -0.1526 -0.1071 -0.3721
  165HFI     C3 2464   0.336   1.390   2.324 -0.3642  0.0692 -0.1035
  165HFI     F4 2465   0.433   1.438   2.403  0.0282  0.0989  0.0374
  165HFI     F5 2466   0.264   1.491   2.265  0.2085  0.2256 -0.2478
  165HFI     F6 2467   0.401   1.322   2.222  0.4793  0.0479 -0.5132
  165HFI     H1 2468   0.377   1.136   2.398  0.9639  0.0281  0.5165
  165HFI     H2 2469   0.203   1.347   2.486  0.9942 -0.8421  1.7397
  166HFI     O1 2470   0.965   2.244   3.664  1.0108 -0.1452  0.3015
  166HFI     C1 2471   0.866   2.347   3.621 -1.1873 -0.0782 -0.2142
  166HFI     C2 2472   0.816   2.331   3.471  0.1651  0.6414  0.5541
  166HFI     F1 2473   0.780   2.210   3.440 -0.3969  0.1887 -0.0322
  166HFI     F2 2474   0.914   2.357   3.381 -0.8756  0.0896  0.1826
  166HFI     F3 2475   0.713   2.411   3.441 -0.0647 -0.1558 -0.2932
  166HFI     C3 2476   0.924   2.488   3.646 -0.3885 -0.3392  0.3988
  166HFI     F4 2477   0.952   2.498   3.775  0.5012  0.1809  0.0401
  166HFI     F5 2478   0.838   2.589   3.612 -0.2779 -0.4624  0.0486
  166HFI     F6 2479   1.041   2.507   3.579  0.0226 -0.1587  0.3212
  166HFI     H1 2480   1.039   2.230   3.603 -0.3685 -1.3286 -1.1515
  166HFI     H2 2481   0.773   2.340   3.679 -0.6746  1.5001  0.8260
  167HFI     O1 2482   0.679   0.050   2.473  0.3601 -0.0269 -0.2814
  167HFI     C1 2483   0.786  -0.022   2.409  0.0870  1.0772 -0.2748
  167HFI     C2 2484   0.881   0.078   2.343 -1.2861  0.1415  0.3343
  167HFI     F1 2485   0.931   0.170   2.432  0.4541  0.5244  0.7627
  167HFI     F2 2486   0.827   0.149   2.247  0.0101 -0.0555 -0.4370
  167HFI     F3 2487   0.993   0.021   2.292  0.1211  0.3463 -0.1677
  167HFI     C3 2488   0.743  -0.126   2.302 -0.2200 -0.0982 -0.2654
  167HFI     F4 2489   0.844  -0.175   2.223  0.0659  0.3517  0.5906
  167HFI     F5 2490   0.643  -0.087   2.230 -0.3361 -0.2933  0.0053
  167HFI     F6 2491   0.692  -0.233   2.373 -0.2816 -0.8343 -0.2042
  167HFI     H1 2492   0.606  -0.010   2.496  0.5518  0.2721  1.1600
  167HFI     H2 2493   0.846  -0.076   2.483  2.2150  2.7364 -0.7223
  168HFI     O1 2494   2.067   2.995   2.223 -0.7502  0.6791  0.0156
  168HFI     C1 2495   2.160   2.968   2.338  0.0544 -0.1453 -0.0619
  168HFI     C2 2496   2.298   3.042   2.333  0.4801 -0.4335  0.2168
  168HFI     F1 2497   2.367   3.008   2.218  0.1828  0.2965 -0.3218
  168HFI     F2 2498   2.374   3.018   2.436  0.3418  0.6366 -0.3063
  168HFI     F3 2499   2.287   3.177   2.327  0.0606 -0.2493 -0.1221
  168HFI     C3 2500   2.180   2.818   2.351  0.3514  0.2160  0.3715
  168HFI     F4 2501   2.232   2.792   2.469 -0.3708  0.3618 -0.4932
  168HFI     F5 2502   2.259   2.764   2.259  0.5197 -0.1224 -0.1423
  168HFI     F6 2503   2.059   2.752   2.350  0.0569 -0.2952 -0.4026
  168HFI     H1 2504   2.044   3.089   2.230  0.1227  0.7848  1.5918
  168HFI     H2 2505   2.120   3.003   2.434 -1.6612 -0.4058 -0.6708
  169HFI     O1 2506   2.276   0.788   3.387  0.1786 -0.2470 -0.1813
  169HFI     C1 2507   2.314   0.764   3.242  0.1315 -0.5803 -0.1015
  169HFI     C2 2508   2.438   0.666   3.237 -0.0177 -0.1924  0.4436
  169HFI     F1 2509   2.464   0.613   3.123 -0.1668  0.2253  0.0752
  169HFI     F2 2510   2.419   0.560   3.316 -0.2284 -0.0955  0.7204
  169HFI     F3 2511   2.554   0.724   3.282 -0.2589  0.0253  0.8052
  169HFI     C3 2512   2.339   0.901   3.173  0.3512  0.1418 -1.0552
  169HFI     F4 2513   2.410   0.985   3.240 -0.0970 -0.2262  0.2021
  169HFI     F5 2514   2.215   0.959   3.144  0.1116 -0.6182  0.1342
  169HFI     F6 2515   2.400   0.885   3.054  0.0843 -0.6414 -0.4772
  169HFI     H1 2516   2.347   0.833   3.437  2.0816 -2.3982 -0.8919
  169HFI     H2 2517   2.236   0.713   3.184 -1.0459  1.3604 -0.2719
  170HFI     O1 2518   0.674   2.056   3.703  0.8662 -0.3286 -0.0224
  170HFI     C1 2519   0.787   1.986   3.772 -0.1047 -0.3690  0.2959
  170HFI     C2 2520   0.771   1.838   3.770 -0.1603  0.8079  0.1568
  170HFI     F1 2521   0.867   1.772   3.830 -0.0002  0.6187 -0.2942
  170HFI     F2 2522   0.782   1.797   3.643 -0.1216 -0.1560  0.3651
  170HFI     F3 2523   0.653   1.798   3.814  0.0194  0.2685 -0.0961
  170HFI     C3 2524   0.797   2.048   3.914  0.3957 -0.8261 -0.2956
  170HFI     F4 2525   0.905   2.001   3.980  0.3779  0.0508  0.2727
  170HFI     F5 2526   0.689   2.009   3.979 -0.0490 -0.1066 -0.4450
  170HFI     F6 2527   0.812   2.184   3.921  0.0858 -0.5402  0.5280
  170HFI     H1 2528   0.664   1.994   3.629 -0.2296 -0.8336  0.5355
  170HFI     H2 2529   0.876   2.004   3.710 -0.3679  0.0655  0.0407
  171HFI     O1 2530   2.883   0.134   3.346  0.7543 -0.2824  0.0478
  171HFI     C1 2531   2.897   0.256   3.278  0.6627 -0.5927 -0.2966
  171HFI     C2 2532   2.780   0.287   3.186 -0.5263  0.3838  0.6390
  171HFI     F1 2533   2.771   0.423   3.157 -0.0955 -0.3744 -0.1720
  171HFI     F2 2534   2.667   0.256   3.250 -0.0659 -0.1202  0.1361
  171HFI     F3 2535   2.786   0.214   3.068 -0.2123 -0.2108  0.1826
  171HFI     C3 2536   3.039   0.275   3.212 -0.7602  0.0757  0.7277
  171HFI     F4 2537   3.055   0.197   3.097 -0.0426  0.3027  0.3495
  171HFI     F5 2538   3.147   0.251   3.289  0.4020 -0.1128  0.2779
  171HFI     F6 2539   3.054   0.403   3.175 -0.2078 -0.0134  0.0262
  171HFI     H1 2540   2.800   0.123   3.396  1.4018  1.1748  1.4616
  171HFI     H2 2541   2.910   0.327   3.361 -0.7788  0.0250 -0.5927
  172HFI     O1 2542   0.753   2.883   0.751  0.2387  0.8210 -0.5642
  172HFI     C1 2543   0.748   2.734   0.744  0.0212 -0.2832  0.2510
  172HFI     C2 2544   0.824   2.668   0.870  0.2155  0.6433 -0.2854
  172HFI     F1 2545   0.792   2.533   0.892 -0.0402 -0.8020 -0.1859
  172HFI     F2 2546   0.795   2.739   0.978 -0.1705 -0.2748  0.0815
  172HFI     F3 2547   0.962   2.665   0.859  0.2308 -0.0477  0.4830
  172HFI     C3 2548   0.803   2.673   0.611 -0.6060  0.3775 -0.1463
  172HFI     F4 2549   0.723   2.709   0.506 -0.1780 -0.1443 -0.1918
  172HFI     F5 2550   0.814   2.536   0.613  0.0136 -0.4711 -0.2545
  172HFI     F6 2551   0.924   2.726   0.584  0.2375  0.2199 -0.0814
  172HFI     H1 2552   0.842   2.907   0.782 -0.3147  2.7772 -0.4197
  172HFI     H2 2553   0.643   2.703   0.757  0.2280 -0.6538  1.0183
  173HFI     O1 2554   0.830   0.591   0.339  0.4989  0.3812 -0.3136
  173HFI     C1 2555   0.706   0.597   0.414  0.4778 -0.0215 -0.2880
  173HFI     C2 2556   0.735   0.622   0.563  0.5214  0.0756  0.5252
  173HFI     F1 2557   0.616   0.661   0.618 -0.0304 -0.1068  0.8023
  173HFI     F2 2558   0.830   0.720   0.582 -0.8088  0.1393  0.8835
  173HFI     F3 2559   0.775   0.508   0.628 -0.0494  0.1229  0.4128
  173HFI     C3 2560   0.611   0.477   0.385  0.3658 -0.6358  0.1162
  173HFI     F4 2561   0.669   0.356   0.414 -0.2181 -0.1339 -0.3233
  173HFI     F5 2562   0.585   0.486   0.256 -1.0070  0.3307  0.1594
  173HFI     F6 2563   0.494   0.487   0.453 -0.4718 -0.6996 -0.0674
  173HFI     H1 2564   0.857   0.499   0.325  0.9550  0.5230 -0.3744
  173HFI     H2 2565   0.656   0.689   0.382 -1.3886 -1.1875 -0.8296
  174HFI     O1 2566   1.545   2.458   2.265  0.3543  0.3227  0.0726
  174HFI     C1 2567   1.569   2.596   2.278 -0.5776 -0.0007  0.1848
  174HFI     C2 2568   1.678   2.627   2.388  0.3997  0.7512 -0.0965
  174HFI     F1 2569   1.634   2.586   2.514  0.2002  0.1620 -0.5673
  174HFI     F2 2570   1.700   2.762   2.396 -0.0571 -0.2179  0.2513
  174HFI     F3 2571   1.792   2.565   2.354  0.1754  0.2353  0.0921
  174HFI     C3 2572   1.441   2.686   2.288  0.0233 -0.3307  0.0860
  174HFI     F4 2573   1.379   2.667   2.405  0.2887 -0.2150 -0.0336
  174HFI     F5 2574   1.350   2.653   2.195  0.1070 -0.0902  0.0252
  174HFI     F6 2575   1.478   2.813   2.272 -0.0067  0.4772 -0.5417
  174HFI     H1 2576   1.555   2.412   2.350 -1.1961  0.7575  0.5074
  174HFI     H2 2577   1.613   2.637   2.187 -0.7940 -0.9171 -0.3371
  175HFI     O1 2578   2.552   3.141   2.701 -0.3359 -0.2392  0.4652
  175HFI     C1 2579   2.647   3.144   2.807 -0.7806 -0.2151  0.3808
  175HFI     C2 2580   2.660   3.291   2.862  0.7636 -0.0271  0.2707
  175HFI     F1 2581   2.540   3.343   2.885  0.2867  0.1480 -0.3336
  175HFI     F2 2582   2.721   3.370   2.768 -0.1204  0.1820  0.0506
  175HFI     F3 2583   2.722   3.296   2.980 -0.3939 -0.0325 -0.0339
  175HFI     C3 2584   2.781   3.083   2.769 -0.5305  0.2319 -0.3664
  175HFI     F4 2585   2.871   3.074   2.869  0.2644  0.1982  0.1161
  175HFI     F5 2586   2.833   3.147   2.664 -0.3383 -0.5393  0.2479
  175HFI     F6 2587   2.760   2.957   2.731  0.0259  0.4871 -0.6251
  175HFI     H1 2588   2.550   3.228   2.657  0.9716  1.2914  3.3145
  175HFI     H2 2589   2.608   3.084   2.890  0.1427  0.5177  1.3530
  176HFI     O1 2590   3.227   3.206   2.397 -0.5835 -0.0204  0.0993
  176HFI     C1 2591   3.220   3.108   2.293 -0.1718 -0.2937  0.1388
  176HFI     C2 2592   3.075   3.061   2.263  0.2704  0.0488 -0.1852
  176HFI     F1 2593   3.011   3.066   2.382 -0.5860  0.2840 -0.2691
  176HFI     F2 2594   3.060   2.942   2.204 -0.4061 -0.4652  0.3311
  176HFI     F3 2595   3.006   3.146   2.189 -0.2143 -0.2761 -0.3246
  176HFI     C3 2596   3.319   2.991   2.316  0.4378 -0.3314  0.9609
  176HFI     F4 2597   3.433   3.039   2.371  0.1303 -0.3554 -0.1681
  176HFI     F5 2598   3.350   2.929   2.199  0.1320 -0.3349  0.2684
  176HFI     F6 2599   3.271   2.907   2.407  0.1649  0.5109  0.4985
  176HFI     H1 2600   3.208   3.161   2.481 -0.5396 -1.3488 -0.5859
  176HFI     H2 2601   3.246   3.161   2.201  0.1584  2.4931  1.7581
  177HFI     O1 2602   1.828   3.012   2.912  0.1540  0.1693 -0.2006
  177HFI     C1 2603   1.799   2.905   2.818  0.5972 -0.8132  0.2233
  177HFI     C2 2604   1.893   2.914   2.693 -0.6831 -0.3649 -0.3426
  177HFI     F1 2605   2.023   2.895   2.735 -0.2747  0.1213 -0.2043
  177HFI     F2 2606   1.885   3.022   2.619 -0.0050 -0.3919  0.3788
  177HFI     F3 2607   1.853   2.811   2.612 -0.2334  0.2286  0.2627
  177HFI     C3 2608   1.649   2.902   2.782 -0.6775 -0.0069  0.0735
  177HFI     F4 2609   1.599   2.781   2.737  0.3010 -0.1916  0.5831
  177HFI     F5 2610   1.617   2.990   2.686 -0.1637  0.2726  0.0860
  177HFI     F6 2611   1.571   2.935   2.887  0.0404  0.3280 -0.1789
  177HFI     H1 2612   1.838   2.976   3.002  1.4914  3.1009  0.8745
  177HFI     H2 2613   1.823   2.805   2.857 -0.6045 -0.7678  1.0808
  178HFI     O1 2614   1.213   3.409   3.645  0.2223 -0.1552 -0.0538
  178HFI     C1 2615   1.104   3.317   3.600 -0.2389  0.0005  0.1635
  178HFI     C2 2616   1.156   3.186   3.541 -0.0985 -0.1286  0.1325
  178HFI     F1 2617   1.049   3.098   3.518 -0.0544 -0.3555  0.5975
  178HFI     F2 2618   1.239   3.127   3.631 -0.7845 -0.3330 -0.4218
  178HFI     F3 2619   1.229   3.196   3.420 -0.4747  0.0902 -0.5418
  178HFI     C3 2620   1.015   3.398   3.509  0.2800 -0.6840 -0.7954
  178HFI     F4 2621   1.074   3.437   3.397 -0.8296 -0.1950 -0.1557
  178HFI     F5 2622   0.973   3.508   3.571 -0.7201 -0.0564  0.0224
  178HFI     F6 2623   0.905   3.327   3.472 -0.0046  0.2894 -0.0015
  178HFI     H1 2624   1.170   3.468   3.709  0.0645 -0.3413  0.0123
  178HFI     H2 2625   1.045   3.289   3.688 -0.0007 -0.0411  0.3088
  179HFI     O1 2626   3.177   0.422   0.689  0.5095 -0.0975  0.3215
  179HFI     C1 2627   3.128   0.355   0.572  0.1590 -0.0430  0.3253
  179HFI     C2 2628   3.085   0.465   0.470 -0.1381 -0.5172  0.5940
  179HFI     F1 2629   3.196   0.521   0.410 -0.6624  0.4984  0.0796
  179HFI     F2 2630   3.020   0.567   0.531  0.0111 -0.6210  0.2258
  179HFI     F3 2631   3.005   0.422   0.367  0.0248  0.1053  0.0964
  179HFI     C3 2632   3.014   0.252   0.617 -0.1297 -0.6860  0.2126
  179HFI     F4 2633   3.036   0.211   0.742  0.2703  0.4791 -0.2265
  179HFI     F5 2634   3.008   0.136   0.549  0.1511 -0.1310 -0.1998
  179HFI     F6 2635   2.883   0.302   0.613  0.5534 -0.0504  0.1174
  179HFI     H1 2636   3.231   0.362   0.741  0.2707  1.0037  1.8773
  179HFI     H2 2637   3.210   0.298   0.526  0.6352  1.1166 -0.2937
  180HFI     O1 2638   1.245   0.926   1.547  0.3066 -0.9682  0.0847
  180HFI     C1 2639   1.276   1.009   1.437 -0.0311  0.3103  0.1971
  180HFI     C2 2640   1.380   1.109   1.479  0.8136  0.3076 -0.8941
  180HFI     F1 2641   1.469   1.075   1.572  0.0309  0.1732  0.2543
  180HFI     F2 2642   1.317   1.222   1.520 -0.5512  0.7088  0.6880
  180HFI     F3 2643   1.448   1.155   1.376 -0.2176 -0.1696 -0.3914
  180HFI     C3 2644   1.160   1.076   1.366  0.1394 -0.0439 -0.3240
  180HFI     F4 2645   1.203   1.161   1.275 -0.1906 -0.8142  0.2414
  180HFI     F5 2646   1.072   1.138   1.450  0.1098 -0.7554 -0.1081
  180HFI     F6 2647   1.086   0.981   1.305  0.4762 -1.1923 -0.2630
  180HFI     H1 2648   1.151   0.943   1.565  0.7095  1.6724 -0.0296
  180HFI     H2 2649   1.319   0.952   1.354  2.0182  0.4628  1.1221
  181HFI     O1 2650   1.366   0.738   3.459 -0.8244  0.1246 -0.1687
  181HFI     C1 2651   1.497   0.762   3.393  0.0644 -0.0238  0.0127
  181HFI     C2 2652   1.577   0.881   3.457  0.3631 -0.1020 -0.5155
  181HFI     F1 2653   1.607   0.849   3.582  0.0914  0.3053 -0.2980
  181HFI     F2 2654   1.505   0.998   3.448 -0.3141  0.1835  0.2813
  181HFI     F3 2655   1.698   0.894   3.400 -0.4217 -0.0723  0.4224
  181HFI     C3 2656   1.472   0.780   3.240  0.2029  0.3930  0.3395
  181HFI     F4 2657   1.378   0.691   3.203  0.3437 -0.2046 -0.5445
  181HFI     F5 2658   1.586   0.762   3.171  0.3476  0.0581 -0.1207
  181HFI     F6 2659   1.412   0.899   3.212 -0.2342 -0.3907 -0.7170
  181HFI     H1 2660   1.300   0.805   3.434 -1.7760 -0.2795  1.2015
  181HFI     H2 2661   1.562   0.676   3.410  1.2619  0.7090 -0.7885
  182HFI     O1 2662   1.132   0.901   2.828  0.5010 -0.3776  0.6256
  182HFI     C1 2663   1.008   0.893   2.917  0.1492 -0.3781  0.1153
  182HFI     C2 2664   0.977   1.034   2.977 -0.9611 -0.2263 -0.2166
  182HFI     F1 2665   1.079   1.086   3.054 -0.1966  0.8030  0.4142
  182HFI     F2 2666   0.861   1.042   3.053 -0.3072 -0.1866 -0.5399
  182HFI     F3 2667   0.964   1.116   2.872  0.0689  0.5678 -0.2792
  182HFI     C3 2668   1.023   0.779   3.023  1.1896  0.9365 -0.2251
  182HFI     F4 2669   1.135   0.707   2.999  0.1144  0.0992 -0.4400
  182HFI     F5 2670   0.915   0.696   3.003  0.1321  0.1254 -0.1622
  182HFI     F6 2671   1.027   0.821   3.149  0.2698  0.0304 -0.2125
  182HFI     H1 2672   1.219   0.903   2.871  0.3664 -2.3229  1.0452
  182HFI     H2 2673   0.926   0.855   2.856  0.2562  1.6327 -1.3521
  183HFI     O1 2674   1.460   0.110   3.582 -0.3701 -0.4563  0.0392
  183HFI     C1 2675   1.467   0.128   3.437  0.0186  0.6721 -0.2201
  183HFI     C2 2676   1.615   0.136   3.396 -0.6094 -0.0805  0.2248
  183HFI     F1 2677   1.636   0.159   3.264 -0.2941  0.4340  0.2971
  183HFI     F2 2678   1.679   0.022   3.428  0.1232 -0.1507  0.0039
  183HFI     F3 2679   1.674   0.238   3.461 -0.4457  0.4427  0.2622
  183HFI     C3 2680   1.384   0.259   3.403  0.2649  0.6371  0.4867
  183HFI     F4 2681   1.409   0.308   3.281 -0.1218 -0.0188  0.4581
  183HFI     F5 2682   1.405   0.351   3.492 -0.2572  0.5525 -1.1511
  183HFI     F6 2683   1.251   0.232   3.420  0.2234  0.3540  0.2209
  183HFI     H1 2684   1.388   0.048   3.601  0.8102 -1.5813  0.9200
  183HFI     H2 2685   1.429   0.045   3.376  1.3767  0.7491 -1.2115
  184HFI     O1 2686   1.467   2.538   0.028  0.2006 -0.2410 -0.3150
  184HFI     C1 2687   1.391   2.538  -0.091 -0.2842 -0.5405 -0.0978
  184HFI     C2 2688   1.436   2.430  -0.193  0.0555  0.1432  0.2480
  184HFI     F1 2689   1.431   2.304  -0.147  0.0197  0.6316 -0.6236
  184HFI     F2 2690   1.564   2.457  -0.229  0.0170 -0.4869 -0.4355
  184HFI     F3 2691   1.354   2.432  -0.299  0.6337  0.2845  0.0138
  184HFI     C3 2692   1.353   2.683  -0.151 -0.5711 -0.2204 -0.0675
  184HFI     F4 2693   1.223   2.720  -0.113 -0.0546  0.6378  0.1003
  184HFI     F5 2694   1.356   2.689  -0.285  0.5018  0.3502 -0.0737
  184HFI     F6 2695   1.437   2.769  -0.104 -0.6761 -0.2146  0.6596
  184HFI     H1 2696   1.538   2.604   0.027  1.5582 -1.6658  0.0020
  184HFI     H2 2697   1.292   2.514  -0.048 -0.1409  0.2096  0.6779
  185HFI     O1 2698   1.330   0.892   2.492  0.5832  0.2605 -0.3021
  185HFI     C1 2699   1.291   0.762   2.443  0.4243  0.6070 -0.2789
  185HFI     C2 2700   1.258   0.771   2.290  0.0517 -0.4181  0.5524
  185HFI     F1 2701   1.240   0.651   2.226 -0.2481 -0.0628 -0.3875
  185HFI     F2 2702   1.358   0.828   2.223 -0.0613 -0.4922 -0.1455
  185HFI     F3 2703   1.151   0.848   2.264  0.0170  0.1293 -0.2800
  185HFI     C3 2704   1.174   0.692   2.517 -0.4000  0.0342  0.4702
  185HFI     F4 2705   1.050   0.735   2.492 -0.1576 -0.0900  0.2842
  185HFI     F5 2706   1.200   0.715   2.648 -0.2565  0.5286  0.4423
  185HFI     F6 2707   1.177   0.554   2.492 -0.2446  0.2474 -0.0583
  185HFI     H1 2708   1.422   0.914   2.466  1.2524 -2.0074  0.0525
  185HFI     H2 2709   1.373   0.689   2.440  0.0192  0.1932 -1.5060
  186HFI     O1 2710   2.436   0.750   2.248  0.1801 -0.6754  0.1691
  186HFI     C1 2711   2.581   0.728   2.265 -0.1196 -0.4822  0.2005
  186HFI     C2 2712   2.615   0.586   2.326  0.2338  0.3256 -0.5496
  186HFI     F1 2713   2.750   0.569   2.337 -0.2623 -0.4794 -0.0244
  186HFI     F2 2714   2.574   0.484   2.245 -0.1351 -0.0251  1.0741
  186HFI     F3 2715   2.555   0.564   2.444  0.3839 -0.5849  0.3692
  186HFI     C3 2716   2.646   0.841   2.354  0.0377 -0.0473  0.0388
  186HFI     F4 2717   2.606   0.970   2.312  0.4276  0.6919 -0.3236
  186HFI     F5 2718   2.783   0.844   2.334  0.8277  0.5937 -0.1368
  186HFI     F6 2719   2.636   0.825   2.488  0.2876  0.0674 -0.6665
  186HFI     H1 2720   2.382   0.752   2.329 -0.5543 -3.5198 -0.1973
  186HFI     H2 2721   2.638   0.731   2.171 -1.7538 -0.4705 -0.7962
  187HFI     O1 2722   0.491   2.263   2.972  0.1168 -0.6262 -0.3268
  187HFI     C1 2723   0.573   2.345   2.881  0.4144 -0.0820 -0.0033
  187HFI     C2 2724   0.692   2.424   2.953 -0.1937  0.1899 -0.0652
  187HFI     F1 2725   0.774   2.339   3.025 -0.4582 -0.1698 -0.4452
  187HFI     F2 2726   0.642   2.515   3.038 -0.2430  0.0962  0.1661
  187HFI     F3 2727   0.773   2.490   2.867  0.3263  0.2443  0.4892
  187HFI     C3 2728   0.489   2.439   2.792  0.3698 -0.0539  0.0047
  187HFI     F4 2729   0.381   2.375   2.742 -0.2515  0.1535  0.0548
  187HFI     F5 2730   0.560   2.497   2.699  0.5197 -0.2306 -0.0661
  187HFI     F6 2731   0.425   2.540   2.876 -0.0462  0.3523  0.2692
  187HFI     H1 2732   0.523   2.287   3.061 -0.6265  2.8193 -0.9200
  187HFI     H2 2733   0.631   2.273   2.821 -0.8653 -1.4421  0.3790
  188HFI     O1 2734   3.024   2.155   2.471 -0.0878  0.3177 -0.1522
  188HFI     C1 2735   2.944   2.054   2.402  0.6706 -0.5044 -0.5039
  188HFI     C2 2736   3.029   1.943   2.329 -0.1639 -0.1156  0.0110
  188HFI     F1 2737   2.945   1.871   2.249  0.1684 -0.3720 -0.0876
  188HFI     F2 2738   3.081   1.857   2.418  0.6256 -0.1349 -0.2077
  188HFI     F3 2739   3.130   1.997   2.254  0.0828  0.4942 -0.5568
  188HFI     C3 2740   2.855   2.131   2.308 -0.4431  0.7627  0.0723
  188HFI     F4 2741   2.770   2.208   2.378  0.4412 -0.3812  0.1759
  188HFI     F5 2742   2.774   2.055   2.235 -0.2941 -0.3320  0.3233
  188HFI     F6 2743   2.920   2.208   2.218 -0.3314  0.2273 -0.0966
  188HFI     H1 2744   3.057   2.221   2.407  2.1854 -0.8733 -0.2474
  188HFI     H2 2745   2.882   1.988   2.464 -0.5449  0.1972 -0.9528
  189HFI     O1 2746   0.166   2.881   0.975  0.5394 -0.5092  0.0224
  189HFI     C1 2747   0.160   3.017   0.932  0.1521  0.4125 -0.2882
  189HFI     C2 2748   0.255   3.040   0.816  0.0729  0.1113  0.3926
  189HFI     F1 2749   0.219   2.944   0.729  0.2261 -0.1191 -0.6290
  189HFI     F2 2750   0.387   3.031   0.844  0.9564  0.6549 -0.1620
  189HFI     F3 2751   0.229   3.159   0.757  0.0054  0.4114 -0.1804
  189HFI     C3 2752   0.195   3.117   1.048  0.0860  0.6745  0.0625
  189HFI     F4 2753   0.323   3.098   1.098  0.4225  0.1691 -0.2972
  189HFI     F5 2754   0.118   3.110   1.154  0.2662  0.3885  0.1238
  189HFI     F6 2755   0.196   3.242   1.012 -0.4747  0.3808 -0.0177
  189HFI     H1 2756   0.178   2.826   0.896 -0.1295  0.7615 -0.9956
  189HFI     H2 2757   0.060   3.043   0.895  0.5305  1.0758 -0.8600
  190HFI     O1 2758   1.746   1.285   0.963 -0.2914 -0.7729  0.1087
  190HFI     C1 2759   1.687   1.391   1.046  0.5160  0.6314 -0.2451
  190HFI     C2 2760   1.558   1.443   0.984  0.2647  0.2498 -0.2985
  190HFI     F1 2761   1.570   1.478   0.857 -0.2769 -0.0739 -0.2466
  190HFI     F2 2762   1.514   1.552   1.051 -0.3956 -0.1952  0.6196
  190HFI     F3 2763   1.466   1.348   0.978 -0.1023 -0.0702 -0.1170
  190HFI     C3 2764   1.799   1.500   1.068  0.3106 -0.0117 -0.6206
  190HFI     F4 2765   1.763   1.603   1.148 -0.0775 -0.2671  0.2012
  190HFI     F5 2766   1.835   1.556   0.940 -0.3167  0.0365  0.2408
  190HFI     F6 2767   1.909   1.444   1.126 -0.0660  0.0966  0.2301
  190HFI     H1 2768   1.752   1.313   0.871  1.2025 -0.5037  0.2854
  190HFI     H2 2769   1.653   1.344   1.139  1.5563 -1.8594 -1.0769
  191HFI     O1 2770   1.929   1.295   3.452  0.9250 -0.1500  0.3083
  191HFI     C1 2771   1.901   1.171   3.380  0.4250 -0.4160 -0.1326
  191HFI     C2 2772   1.986   1.056   3.418 -0.4378 -0.4226 -0.0067
  191HFI     F1 2773   2.117   1.095   3.433  0.0277 -0.1863 -0.0020
  191HFI     F2 2774   1.978   0.945   3.342  0.3297 -0.4426 -0.0198
  191HFI     F3 2775   1.947   1.020   3.541  0.0613  0.4414  0.0123
  191HFI     C3 2776   1.915   1.201   3.230 -0.5425  0.5735  0.7363
  191HFI     F4 2777   1.874   1.096   3.158  0.1599 -0.3909 -0.1556
  191HFI     F5 2778   2.040   1.229   3.197 -0.2736 -0.1191 -0.1147
  191HFI     F6 2779   1.836   1.305   3.194  1.0350 -0.0985 -0.0857
  191HFI     H1 2780   2.014   1.284   3.498 -0.3898 -1.1442  2.5876
  191HFI     H2 2781   1.798   1.136   3.397  1.3832 -2.9233  0.8795
  192HFI     O1 2782   0.304   1.325   1.418  0.3958 -0.2375 -0.3521
  192HFI     C1 2783   0.190   1.287   1.501  0.0150 -0.5881  0.3410
  192HFI     C2 2784   0.179   1.130   1.516 -0.4245 -0.1413  0.1915
  192HFI     F1 2785   0.163   1.076   1.394  0.0085 -0.0956 -0.1219
  192HFI     F2 2786   0.073   1.083   1.588 -0.0012  0.0753 -0.0862
  192HFI     F3 2787   0.290   1.076   1.583 -0.2912  0.3688  0.1548
  192HFI     C3 2788   0.063   1.358   1.457 -0.1913 -0.0593 -0.2360
  192HFI     F4 2789   0.018   1.323   1.336 -0.3288  0.3239 -0.1927
  192HFI     F5 2790   0.083   1.493   1.453 -0.4645 -0.8967  0.4540
  192HFI     F6 2791  -0.032   1.332   1.548  0.0359  0.5946  0.2986
  192HFI     H1 2792   0.382   1.317   1.475  0.3471  1.7982  0.0390
  192HFI     H2 2793   0.206   1.311   1.607 -0.9623 -0.9353  0.5761
  193HFI     O1 2794   0.594   0.826   2.915  0.0820 -0.4755  0.2403
  193HFI     C1 2795   0.486   0.873   2.834 -0.2169 -0.1366 -0.4360
  193HFI     C2 2796   0.464   1.024   2.851 -0.4098 -0.5999 -0.0319
  193HFI     F1 2797   0.585   1.092   2.842 -0.1198 -0.6685  0.2967
  193HFI     F2 2798   0.399   1.059   2.959 -0.4766  0.7119 -0.0876
  193HFI     F3 2799   0.396   1.069   2.748 -0.7158 -0.6518  0.6417
  193HFI     C3 2800   0.357   0.787   2.847  0.5054 -0.5222 -0.1501
  193HFI     F4 2801   0.246   0.843   2.796 -0.0912 -0.6398  0.0910
  193HFI     F5 2802   0.341   0.754   2.982 -1.1290  0.7250 -0.1004
  193HFI     F6 2803   0.360   0.668   2.775 -0.3002 -0.7945  0.3573
  193HFI     H1 2804   0.584   0.865   3.003 -0.8881  0.8850 -0.4431
  193HFI     H2 2805   0.527   0.860   2.733  0.4657 -2.3610  0.0866
  194HFI     O1 2806   1.855   1.922   2.385  0.5518  0.5817 -0.1717
  194HFI     C1 2807   1.992   1.943   2.445  0.1573 -0.1229  0.3983
  194HFI     C2 2808   2.093   1.939   2.320 -0.4384  0.0757  0.0784
  194HFI     F1 2809   2.059   2.026   2.225  0.3278 -0.2804 -0.1619
  194HFI     F2 2810   2.096   1.813   2.267  0.0976 -0.7813  0.0056
  194HFI     F3 2811   2.218   1.974   2.364  0.0062  0.0896  0.1776
  194HFI     C3 2812   2.027   1.849   2.569  0.7931 -0.7084  0.0566
  194HFI     F4 2813   2.122   1.757   2.542 -0.1246  0.6319  0.7823
  194HFI     F5 2814   1.913   1.787   2.615 -0.4548 -0.3530  0.8137
  194HFI     F6 2815   2.073   1.927   2.672  0.1335  0.2525  0.1943
  194HFI     H1 2816   1.857   1.836   2.339 -0.3862 -0.5265  1.8166
  194HFI     H2 2817   2.015   2.041   2.488  0.4230 -0.0297  0.0419
  195HFI     O1 2818   3.182   1.299   3.771 -0.2078  0.0347  0.5134
  195HFI     C1 2819   3.144   1.188   3.856 -0.4918  0.0426 -0.1999
  195HFI     C2 2820   3.258   1.083   3.873 -0.0684 -0.2544 -0.2674
  195HFI     F1 2821   3.374   1.142   3.902 -0.2388 -0.0879 -0.4721
  195HFI     F2 2822   3.272   1.017   3.758 -0.0845  0.0004 -0.5370
  195HFI     F3 2823   3.233   0.985   3.963 -0.0906  0.3775  0.1734
  195HFI     C3 2824   3.013   1.127   3.802  0.8272  0.7033 -0.1944
  195HFI     F4 2825   3.022   1.088   3.675  0.1296 -0.2809  0.5717
  195HFI     F5 2826   2.913   1.221   3.804 -0.2630  0.4244  0.0186
  195HFI     F6 2827   2.968   1.022   3.877  0.9744 -0.2079  0.6196
  195HFI     H1 2828   3.219   1.259   3.690 -0.2191 -0.4774  0.7566
  195HFI     H2 2829   3.114   1.220   3.956 -0.8171  1.4590 -0.7361
  196HFI     O1 2830   3.309   0.045   2.241  0.0484 -0.1548 -0.0406
  196HFI     C1 2831   3.239   0.172   2.258 -0.0654 -0.3238  0.2356
  196HFI     C2 2832   3.326   0.274   2.334 -0.4959  0.2776  0.2760
  196HFI     F1 2833   3.270   0.400   2.345 -0.6211  0.1543  0.1396
  196HFI     F2 2834   3.444   0.295   2.271 -0.0143  0.2742  0.2482
  196HFI     F3 2835   3.366   0.224   2.452 -0.3816 -0.2078  0.3402
  196HFI     C3 2836   3.094   0.157   2.318  0.1151  0.4645  0.2521
  196HFI     F4 2837   3.015   0.269   2.311  0.1394 -0.4280 -0.0988
  196HFI     F5 2838   3.108   0.115   2.448  0.7121  0.0794 -0.1109
  196HFI     F6 2839   3.024   0.057   2.255 -0.1030 -1.0786  0.4173
  196HFI     H1 2840   3.309   0.004   2.329  0.3157 -1.4342 -0.6191
  196HFI     H2 2841   3.226   0.222   2.162 -0.2608  0.0955  0.4787
  197HFI     O1 2842   0.657   0.476   3.726 -0.8425  0.1230 -0.2662
  197HFI     C1 2843   0.532   0.508   3.655 -0.3318  0.4850 -0.7035
  197HFI     C2 2844   0.484   0.643   3.716 -0.0072  0.3432 -0.1371
  197HFI     F1 2845   0.451   0.622   3.844 -0.1384  0.4445  0.4712
  197HFI     F2 2846   0.383   0.693   3.647  0.5314 -0.3296 -0.6530
  197HFI     F3 2847   0.591   0.732   3.714 -0.0596  0.0629  0.5113
  197HFI     C3 2848   0.441   0.388   3.648 -0.2396 -0.6737  0.3399
  197HFI     F4 2849   0.316   0.435   3.606 -0.3951  0.7205  0.1603
  197HFI     F5 2850   0.435   0.318   3.767 -0.5814 -0.5748  0.0777
  197HFI     F6 2851   0.492   0.301   3.556  0.2933  0.5253 -0.0657
  197HFI     H1 2852   0.651   0.525   3.809  1.8785  1.4257 -0.7647
  197HFI     H2 2853   0.555   0.529   3.549 -0.0255  2.2488 -0.3051
  198HFI     O1 2854   0.907   0.631   0.872 -0.2100 -0.0496 -0.2032
  198HFI     C1 2855   0.900   0.768   0.941 -0.2091  0.2836  0.3165
  198HFI     C2 2856   0.760   0.827   0.961  0.3848 -0.5245 -0.1905
  198HFI     F1 2857   0.692   0.820   0.842 -0.4935  0.2139 -0.6306
  198HFI     F2 2858   0.757   0.956   0.996 -0.0674 -0.3314 -0.6420
  198HFI     F3 2859   0.690   0.753   1.052 -0.4423  0.1565 -0.6945
  198HFI     C3 2860   0.998   0.864   0.880  0.3011  0.1735 -0.3063
  198HFI     F4 2861   1.001   0.984   0.954  0.1706 -0.3744  0.1906
  198HFI     F5 2862   0.959   0.890   0.759  0.0333 -0.5268 -0.2677
  198HFI     F6 2863   1.125   0.816   0.876  0.5065 -0.2592 -0.4480
  198HFI     H1 2864   0.865   0.629   0.785 -0.9875  0.5393  0.1510
  198HFI     H2 2865   0.947   0.754   1.039 -0.2466  0.0470  0.2998
  199HFI     O1 2866   2.486   0.723   0.233  0.1637  0.0416  0.1296
  199HFI     C1 2867   2.506   0.664   0.367 -0.1896  0.0889 -0.5269
  199HFI     C2 2868   2.607   0.548   0.364  0.4236 -0.5223 -0.1102
  199HFI     F1 2869   2.564   0.433   0.304 -0.4957  0.5456  0.5567
  199HFI     F2 2870   2.642   0.520   0.490 -0.3685 -0.5427  0.2057
  199HFI     F3 2871   2.717   0.580   0.293 -0.1575 -0.4375  0.3045
  199HFI     C3 2872   2.371   0.630   0.442  0.6089  0.5808  0.9880
  199HFI     F4 2873   2.391   0.543   0.538 -0.0252 -0.1064  0.4486
  199HFI     F5 2874   2.286   0.563   0.365  0.5111  0.1342 -0.5090
  199HFI     F6 2875   2.309   0.738   0.493  0.1260  0.1282  0.2458
  199HFI     H1 2876   2.398   0.696   0.201 -0.0797 -0.0988  0.9037
  199HFI     H2 2877   2.557   0.740   0.427 -0.3300 -1.5798  1.7636
  200HFI     O1 2878   2.086   0.012   3.075  0.3022  0.7341  0.2708
  200HFI     C1 2879   2.211  -0.055   3.048 -0.2464  0.1716 -0.5966
  200HFI     C2 2880   2.189  -0.207   2.987 -0.0319 -1.2132  0.2840
  200HFI     F1 2881   2.064  -0.207   2.923 -0.8535 -0.1011 -0.3029
  200HFI     F2 2882   2.191  -0.306   3.076 -0.0983  0.3274  0.0393
  200HFI     F3 2883   2.277  -0.242   2.891 -0.0721  0.1445  1.1978
  200HFI     C3 2884   2.308  -0.053   3.171 -0.1765  0.7424  0.4367
  200HFI     F4 2885   2.357   0.069   3.206  0.2389 -0.8024  0.0993
  200HFI     F5 2886   2.411  -0.135   3.146 -0.7059  0.2342  0.3635
  200HFI     F6 2887   2.253  -0.101   3.280 -0.0199 -0.3062  0.0424
  200HFI     H1 2888   2.049   0.041   2.990 -1.5095  0.5041  0.9568
  200HFI     H2 2889   2.277  -0.009   2.974 -2.2386  2.4150 -1.0152
  201HFI     O1 2890   2.761   2.130   0.748  0.2649  0.0668 -0.5572
  201HFI     C1 2891   2.707   1.995   0.757 -0.4317  0.5081 -0.4486
  201HFI     C2 2892   2.659   1.937   0.620  0.8622 -0.1779  0.6857
  201HFI     F1 2893   2.555   2.006   0.572 -0.3037  0.0845  1.1377
  201HFI     F2 2894   2.609   1.804   0.634 -0.4981  0.4400  0.2926
  201HFI     F3 2895   2.761   1.936   0.531  0.3795 -0.2685  0.0714
  201HFI     C3 2896   2.611   1.984   0.874 -0.1399 -0.2114 -0.7360
  201HFI     F4 2897   2.667   2.045   0.982 -0.5353 -0.1264  0.4276
  201HFI     F5 2898   2.589   1.854   0.899  0.0330 -0.5960  0.2536
  201HFI     F6 2899   2.492   2.048   0.853 -0.3855 -0.1787 -0.4512
  201HFI     H1 2900   2.793   2.161   0.834 -0.8438  0.1961 -0.1750
  201HFI     H2 2901   2.784   1.921   0.780 -0.9527 -0.3673 -1.4987
  202HFI     O1 2902   0.444   2.578   0.688 -0.2996 -0.4839 -0.2375
  202HFI     C1 2903   0.377   2.481   0.775  0.6460 -1.0869  0.6846
  202HFI     C2 2904   0.394   2.523   0.920 -0.1277  0.1728  0.1568
  202HFI     F1 2905   0.342   2.645   0.936  0.3161 -0.4668  0.6877
  202HFI     F2 2906   0.525   2.538   0.956  0.0093  0.0732  0.5073
  202HFI     F3 2907   0.330   2.440   1.003  0.1523  0.0464 -0.3843
  202HFI     C3 2908   0.422   2.337   0.735 -0.2886  0.4665 -0.4672
  202HFI     F4 2909   0.374   2.236   0.818 -0.2286  0.5023  0.1615
  202HFI     F5 2910   0.557   2.338   0.743  0.2235 -0.1468 -0.2322
  202HFI     F6 2911   0.398   2.305   0.608  0.7141  0.4034  0.1374
  202HFI     H1 2912   0.395   2.582   0.604  0.4266 -2.8246 -0.7872
  202HFI     H2 2913   0.268   2.483   0.760  0.9141  1.2354 -1.3787
  203HFI     O1 2914   0.260   0.706   0.921  0.0618  0.1433  0.2520
  203HFI     C1 2915   0.194   0.717   1.050 -0.1268 -0.3690 -0.4572
  203HFI     C2 2916   0.303   0.727   1.165  0.5273  0.4336 -0.0620
  203HFI     F1 2917   0.257   0.765   1.292  0.0056 -0.1347 -0.3696
  203HFI     F2 2918   0.401   0.816   1.130 -0.2423 -0.7232 -0.4243
  203HFI     F3 2919   0.367   0.608   1.186 -0.0933 -0.5781  0.3171
  203HFI     C3 2920   0.074   0.621   1.064  0.5086 -0.8375 -0.0325
  203HFI     F4 2921   0.113   0.498   1.093  0.3037 -0.1516  0.4458
  203HFI     F5 2922   0.003   0.612   0.944 -0.4886 -0.1387  0.3285
  203HFI     F6 2923   0.000   0.657   1.172  0.0758 -0.2338  0.0957
  203HFI     H1 2924   0.327   0.774   0.907  0.4267  0.4707  3.2488
  203HFI     H2 2925   0.147   0.816   1.056  0.2247 -0.0650 -2.4293
  204HFI     O1 2926   1.659   3.259   2.770 -0.0887  0.3697  0.0606
  204HFI     C1 2927   1.590   3.343   2.863 -0.9782  0.4418  0.4462
  204HFI     C2 2928   1.662   3.489   2.865  0.4646  0.1719  0.1533
  204HFI     F1 2929   1.663   3.543   2.742  0.3935 -0.0008  0.1626
  204HFI     F2 2930   1.786   3.479   2.924  0.1348  0.0334 -0.1987
  204HFI     F3 2931   1.597   3.582   2.937  0.2854  0.0207 -0.0442
  204HFI     C3 2932   1.583   3.278   3.003  0.2775  0.5574  0.5847
  204HFI     F4 2933   1.523   3.367   3.083 -0.1190 -0.5659 -0.3906
  204HFI     F5 2934   1.695   3.230   3.052  0.2294 -0.1178  0.2211
  204HFI     F6 2935   1.489   3.181   2.990 -0.1759  0.2150  0.3173
  204HFI     H1 2936   1.738   3.213   2.804  0.4433 -0.7508 -2.6009
  204HFI     H2 2937   1.492   3.363   2.820 -0.7072  1.1577  0.1489
  205HFI     O1 2938   0.651   1.763   3.171  0.5383 -0.0369 -0.4528
  205HFI     C1 2939   0.684   1.902   3.159 -0.3036 -0.3176 -0.0595
  205HFI     C2 2940   0.826   1.928   3.206  0.0259 -0.7935  0.0827
  205HFI     F1 2941   0.869   2.052   3.174 -0.6556 -0.0937 -0.7409
  205HFI     F2 2942   0.910   1.841   3.144 -0.1756 -0.3265  0.2429
  205HFI     F3 2943   0.844   1.914   3.339  0.0486 -0.4459  0.1335
  205HFI     C3 2944   0.587   1.991   3.237  0.4891  0.3637  0.1664
  205HFI     F4 2945   0.461   1.957   3.190  0.0488  0.3659  0.0921
  205HFI     F5 2946   0.606   2.126   3.221  0.2709 -0.0865  0.1917
  205HFI     F6 2947   0.584   1.966   3.365 -0.0172 -0.6581 -0.3316
  205HFI     H1 2948   0.566   1.759   3.217  2.0497 -0.0864  2.4649
  205HFI     H2 2949   0.682   1.935   3.055 -1.5431  1.2353  0.4365
  206HFI     O1 2950   2.059   1.016   0.090 -0.4890  0.0315  0.1733
  206HFI     C1 2951   2.054   0.871   0.042  0.0053  0.5221  0.3999
  206HFI     C2 2952   1.996   0.780   0.142  0.7465 -0.1428  0.0885
  206HFI     F1 2953   2.072   0.775   0.249 -0.4079 -0.0277 -0.1564
  206HFI     F2 2954   1.975   0.659   0.091  0.4844  0.6252 -0.0903
  206HFI     F3 2955   1.873   0.829   0.184 -0.3302 -0.3133 -0.2189
  206HFI     C3 2956   2.195   0.821  -0.000 -0.2381 -0.5306  0.3293
  206HFI     F4 2957   2.269   0.906  -0.077 -0.2349  0.6937 -0.1272
  206HFI     F5 2958   2.175   0.710  -0.075  0.5812  1.1115  0.0159
  206HFI     F6 2959   2.270   0.791   0.105 -0.1052  0.3360 -0.0437
  206HFI     H1 2960   1.971   1.025   0.131  0.2919  0.7867  1.7165
  206HFI     H2 2961   1.989   0.855  -0.044 -2.1253 -0.7017  2.1849
  207HFI     O1 2962   1.379   1.759   2.478 -0.2204  0.6006 -0.3740
  207HFI     C1 2963   1.458   1.858   2.403  0.6240 -0.4376 -0.5439
  207HFI     C2 2964   1.372   1.985   2.375 -1.2654  0.8542  0.7571
  207HFI     F1 2965   1.247   1.948   2.340  0.0051 -0.4095 -0.0592
  207HFI     F2 2966   1.421   2.061   2.276 -0.2844 -0.0272  0.5029
  207HFI     F3 2967   1.356   2.057   2.483 -0.0810 -0.0598 -0.0470
  207HFI     C3 2968   1.510   1.788   2.281  0.2146 -0.1327  0.2017
  207HFI     F4 2969   1.409   1.748   2.200 -0.1172  0.2477  0.4136
  207HFI     F5 2970   1.579   1.677   2.309  0.6593 -0.3482 -0.4130
  207HFI     F6 2971   1.595   1.869   2.216  0.3631  0.0492  0.2599
  207HFI     H1 2972   1.370   1.680   2.423  1.5096 -0.8080  1.3088
  207HFI     H2 2973   1.544   1.900   2.457 -0.6049  0.7114  0.5563
  208HFI     O1 2974   1.212   0.550   3.633 -0.4000  0.8508 -0.5317
  208HFI     C1 2975   1.090   0.493   3.585 -0.7700  0.1472 -0.1072
  208HFI     C2 2976   1.006   0.597   3.513 -0.3655  0.2069 -1.2537
  208HFI     F1 2977   0.914   0.545   3.432  0.0691  0.1292 -0.1161
  208HFI     F2 2978   1.094   0.669   3.440  0.3763 -0.3759  0.1849
  208HFI     F3 2979   0.949   0.684   3.594  0.1965  0.2378  0.0083
  208HFI     C3 2980   1.006   0.413   3.688 -0.7287  0.7757 -0.4124
  208HFI     F4 2981   0.972   0.486   3.792  0.3714  0.0474  0.1808
  208HFI     F5 2982   1.078   0.302   3.721  0.3204  0.4566 -0.0511
  208HFI     F6 2983   0.896   0.372   3.639 -0.1827 -0.0996  0.3110
  208HFI     H1 2984   1.208   0.647   3.634  0.8605  0.9212 -0.7214
  208HFI     H2 2985   1.109   0.431   3.497  1.4983  1.3301 -0.4771
  209HFI     O1 2986   1.478   3.089   0.094 -0.4136 -0.1645  0.4228
  209HFI     C1 2987   1.583   3.109   0.002  0.4060 -0.5494  0.6135
  209HFI     C2 2988   1.717   3.053   0.057  0.1645  0.1171  0.4431
  209HFI     F1 2989   1.817   3.090  -0.028 -0.0063 -0.2844 -0.1938
  209HFI     F2 2990   1.728   2.923   0.081  0.2493 -0.1939 -0.5366
  209HFI     F3 2991   1.752   3.114   0.166  0.2995  0.1195 -0.1818
  209HFI     C3 2992   1.581   3.270  -0.040 -0.3231  0.7310 -0.6877
  209HFI     F4 2993   1.707   3.318  -0.057 -0.4178 -0.2081  0.1875
  209HFI     F5 2994   1.526   3.348   0.057 -0.4463 -0.2341 -0.2254
  209HFI     F6 2995   1.522   3.279  -0.155 -0.1363  0.0699  0.0045
  209HFI     H1 2996   1.499   3.139   0.175  1.0216 -0.9261  0.5272
  209HFI     H2 2997   1.554   3.056  -0.089  0.5966  0.7492 -0.2100
  210HFI     O1 2998   0.559   2.283   2.491  0.1009 -0.5515 -0.1053
  210HFI     C1 2999   0.591   2.167   2.412 -0.1741  0.1127 -0.6636
  210HFI     C2 3000   0.556   2.178   2.259  0.1805 -0.0890  0.1826
  210HFI     F1 3001   0.427   2.193   2.234 -0.2712  0.0975 -0.5406
  210HFI     F2 3002   0.598   2.065   2.195  0.0230  0.2220 -0.3209
  210HFI     F3 3003   0.623   2.281   2.205 -0.1976 -0.5178  0.4383
  210HFI     C3 3004   0.528   2.038   2.478  0.3349  0.1404 -0.2541
  210HFI     F4 3005   0.412   2.020   2.422  0.0650  0.4066  0.5333
  210HFI     F5 3006   0.492   2.046   2.611  0.0106  0.6101  0.0009
  210HFI     F6 3007   0.601   1.931   2.463  0.5405 -0.1161  0.1848
  210HFI     H1 3008   0.480   2.326   2.454 -0.1412 -1.5253 -0.7664
  210HFI     H2 3009   0.700   2.155   2.417 -0.1674  0.1942 -0.6158
  211HFI     O1 3010   1.327   1.797   0.095  0.6294 -0.0236  0.2253
  211HFI     C1 3011   1.219   1.742   0.177 -0.8605  0.6258 -0.1669
  211HFI     C2 3012   1.250   1.730   0.329 -0.2170  0.4503  0.5807
  211HFI     F1 3013   1.352   1.640   0.344  0.0936  0.2109 -0.3261
  211HFI     F2 3014   1.147   1.691   0.408 -0.0978 -0.4914  0.5008
  211HFI     F3 3015   1.290   1.849   0.384  0.5181 -0.0693  0.2212
  211HFI     C3 3016   1.163   1.604   0.113  0.2614  0.1127  0.0236
  211HFI     F4 3017   1.255   1.510   0.106  0.3188  0.8111  0.2707
  211HFI     F5 3018   1.129   1.635  -0.021 -0.3845 -0.0356 -0.2781
  211HFI     F6 3019   1.051   1.566   0.177  0.0176  0.3760 -0.0738
  211HFI     H1 3020   1.355   1.741   0.020 -0.3778 -1.7760  1.1169
  211HFI     H2 3021   1.137   1.815   0.180 -0.4518  1.1294 -1.1404
  212HFI     O1 3022   2.144   1.668   0.863 -0.6325 -0.3374 -0.0056
  212HFI     C1 3023   2.229   1.546   0.855  0.2234 -0.2375  0.0533
  212HFI     C2 3024   2.318   1.540   0.986 -0.4658  0.1512  0.3740
  212HFI     F1 3025   2.408   1.642   1.002  0.2108  0.4315  0.0672
  212HFI     F2 3026   2.391   1.427   0.981 -0.5938 -0.1511 -0.0320
  212HFI     F3 3027   2.238   1.535   1.093 -0.5924 -0.3672  0.2354
  212HFI     C3 3028   2.302   1.546   0.729 -0.4777 -0.1119  0.5593
  212HFI     F4 3029   2.375   1.438   0.716 -0.4001 -0.4721  0.2150
  212HFI     F5 3030   2.378   1.653   0.715 -0.3849 -0.2386  0.5354
  212HFI     F6 3031   2.213   1.553   0.627 -0.5016 -0.4597 -0.6035
  212HFI     H1 3032   2.200   1.744   0.885  0.9571 -1.0942 -1.3653
  212HFI     H2 3033   2.167   1.456   0.856 -0.0379 -0.0518  1.5209
  213HFI     O1 3034   1.605   1.398   3.448  0.3654 -0.1791 -0.4876
  213HFI     C1 3035   1.477   1.355   3.397  0.3128  0.6043  0.1268
  213HFI     C2 3036   1.491   1.281   3.258 -0.0820 -0.5163 -0.0162
  213HFI     F1 3037   1.381   1.228   3.211 -0.3681  0.0973 -0.1980
  213HFI     F2 3038   1.591   1.181   3.264 -0.3008  0.0858  0.1095
  213HFI     F3 3039   1.541   1.369   3.163  0.0842  0.1526 -0.1744
  213HFI     C3 3040   1.380   1.475   3.388  0.5881 -0.1720  0.3595
  213HFI     F4 3041   1.366   1.529   3.509 -0.1087  0.0550  0.7256
  213HFI     F5 3042   1.257   1.440   3.342  0.1535 -0.3035  0.2937
  213HFI     F6 3043   1.428   1.572   3.316  0.6466 -0.3806  0.2799
  213HFI     H1 3044   1.640   1.476   3.401  1.0314  0.8356  1.6282
  213HFI     H2 3045   1.444   1.296   3.483  2.2484 -0.0142  0.4895
  214HFI     O1 3046   1.043   1.287   1.104  0.5165 -0.2711  0.9359
  214HFI     C1 3047   1.000   1.367   0.988 -0.0310 -0.7095  0.1085
  214HFI     C2 3048   1.032   1.515   1.003 -0.9835 -0.6972 -0.3593
  214HFI     F1 3049   1.034   1.580   0.883 -0.3113 -0.0569  0.4131
  214HFI     F2 3050   1.152   1.530   1.058  0.0657 -0.6933 -0.2672
  214HFI     F3 3051   0.943   1.572   1.081  0.1617  0.3534 -0.1325
  214HFI     C3 3052   0.857   1.337   0.939  0.1548 -0.3649  0.6635
  214HFI     F4 3053   0.803   1.441   0.871 -0.7416 -0.1093 -0.1980
  214HFI     F5 3054   0.777   1.305   1.041  0.4012  0.2088  0.2748
  214HFI     F6 3055   0.857   1.239   0.855 -0.3543  0.5920  0.0416
  214HFI     H1 3056   1.132   1.322   1.123  1.3878  0.9169 -4.4429
  214HFI     H2 3057   1.063   1.329   0.907 -0.4844 -0.2672 -0.4569
  215HFI     O1 3058   2.241   2.641   2.823 -0.0234  0.5454 -0.4157
  215HFI     C1 3059   2.168   2.519   2.877 -0.7430 -0.5443  0.2550
  215HFI     C2 3060   2.013   2.545   2.886 -0.0830 -0.1699  0.1574
  215HFI     F1 3061   1.988   2.647   2.964 -0.2489  0.1593  0.3513
  215HFI     F2 3062   1.938   2.439   2.913 -0.0740  0.3387 -0.2040
  215HFI     F3 3063   1.977   2.583   2.768 -0.0829 -0.3662  0.3298
  215HFI     C3 3064   2.221   2.471   3.012  0.5032 -0.6456 -0.4139
  215HFI     F4 3065   2.344   2.419   3.008  0.2421  0.0398 -0.1843
  215HFI     F5 3066   2.147   2.362   3.056  0.0003 -0.3515  0.4206
  215HFI     F6 3067   2.224   2.560   3.110  0.2639  0.0221 -0.7179
  215HFI     H1 3068   2.246   2.623   2.727 -0.1024  1.0899 -0.5193
  215HFI     H2 3069   2.185   2.423   2.826  1.7319 -0.0433  0.0520
  216HFI     O1 3070   3.029   2.186   3.193  0.1326 -0.6298  0.1470
  216HFI     C1 3071   3.073   2.154   3.326  0.2250  0.5245  0.3023
  216HFI     C2 3072   2.968   2.189   3.428 -0.4235  0.1089  0.6340
  216HFI     F1 3073   2.989   2.134   3.551  0.2077 -0.4617  0.0785
  216HFI     F2 3074   2.848   2.145   3.376  0.3439 -0.3103  0.0545
  216HFI     F3 3075   2.946   2.316   3.436 -0.4897 -0.2280  0.0522
  216HFI     C3 3076   3.210   2.221   3.361  0.1878  0.5023  0.4317
  216HFI     F4 3077   3.218   2.355   3.342  0.5295 -0.3065  0.0469
  216HFI     F5 3078   3.304   2.167   3.279 -0.6474 -0.3826 -0.2998
  216HFI     F6 3079   3.241   2.200   3.490 -0.3480  0.6572  0.2655
  216HFI     H1 3080   2.947   2.237   3.196  1.3894  1.3852  2.9234
  216HFI     H2 3081   3.077   2.045   3.341 -1.9793  0.3071 -0.5094
  217HFI     O1 3082   2.147   0.516   3.440 -0.8624 -0.8411 -0.2615
  217HFI     C1 3083   2.031   0.450   3.381  0.3160  0.4359 -0.6111
  217HFI     C2 3084   2.079   0.317   3.316 -0.6268  0.6749 -0.4584
  217HFI     F1 3085   2.158   0.340   3.211  0.2634 -0.1309 -0.2893
  217HFI     F2 3086   1.974   0.230   3.288 -0.1571 -0.5986 -0.3048
  217HFI     F3 3087   2.149   0.237   3.403 -0.5191  0.4674  0.8636
  217HFI     C3 3088   1.951   0.545   3.291  0.0682  0.2322 -0.5412
  217HFI     F4 3089   2.027   0.583   3.188  0.0487  0.5268 -0.3758
  217HFI     F5 3090   1.906   0.651   3.364 -0.3209 -0.2557  0.4345
  217HFI     F6 3091   1.842   0.488   3.244  0.5038 -0.1230  0.2144
  217HFI     H1 3092   2.205   0.468   3.502 -0.4583  1.8546  1.5157
  217HFI     H2 3093   1.952   0.425   3.453  0.5716  2.2540  0.3421
  218HFI     O1 3094   0.155   0.595   3.439 -0.4277  0.0099 -0.5364
  218HFI     C1 3095   0.109   0.730   3.403  0.2235  0.0263  0.1082
  218HFI     C2 3096  -0.040   0.741   3.376  0.6281  0.3553 -0.7550
  218HFI     F1 3097  -0.101   0.703   3.488 -0.6433  0.7390  0.3642
  218HFI     F2 3098  -0.093   0.656   3.286 -0.7438  0.1028 -0.1252
  218HFI     F3 3099  -0.083   0.867   3.346 -0.0384  0.4999 -0.7560
  218HFI     C3 3100   0.187   0.781   3.285 -0.1271 -0.0395  0.1721
  218HFI     F4 3101   0.173   0.908   3.261 -0.2569 -0.3747  0.2960
  218HFI     F5 3102   0.151   0.713   3.169  0.6788  0.2039  0.0024
  218HFI     F6 3103   0.320   0.763   3.303  0.0716  0.4956  0.7478
  218HFI     H1 3104   0.125   0.535   3.369 -0.3149 -2.2783  1.3306
  218HFI     H2 3105   0.125   0.801   3.485  0.9829  1.6665 -1.4155
  219HFI     O1 3106   2.700   2.715   0.742 -0.2911  0.3023  0.5268
  219HFI     C1 3107   2.650   2.840   0.688 -0.2721  0.2262  0.0287
  219HFI     C2 3108   2.569   2.914   0.806  0.4035  0.2315 -0.4031
  219HFI     F1 3109   2.629   2.907   0.925  0.5278 -0.5243 -0.2105
  219HFI     F2 3110   2.445   2.868   0.828  0.5529 -0.2920  0.6140
  219HFI     F3 3111   2.563   3.046   0.777  0.5199 -0.1310 -0.2409
  219HFI     C3 3112   2.571   2.829   0.560  0.1751  0.1245  0.5078
  219HFI     F4 3113   2.550   2.956   0.507 -0.7521  0.2091  0.5230
  219HFI     F5 3114   2.458   2.752   0.579  0.0412  0.3288 -0.2973
  219HFI     F6 3115   2.637   2.758   0.472  0.2410 -0.2710 -0.1280
  219HFI     H1 3116   2.682   2.637   0.686 -0.1266 -0.1752  1.1263
  219HFI     H2 3117   2.729   2.913   0.667 -1.5214  1.7002  0.2529
  220HFI     O1 3118   2.833   1.662   2.963 -0.4153  0.0344 -0.0838
  220HFI     C1 3119   2.914   1.592   2.858  0.4854 -0.4757 -0.2131
  220HFI     C2 3120   2.859   1.626   2.719 -0.0137  0.2063 -0.2939
  220HFI     F1 3121   2.860   1.760   2.693  0.4778 -0.5841 -0.2998
  220HFI     F2 3122   2.732   1.577   2.705 -0.4684  0.1132 -0.4718
  220HFI     F3 3123   2.925   1.567   2.617 -0.1165  0.2745  0.1195
  220HFI     C3 3124   2.938   1.443   2.891 -0.1057  0.0962 -0.1537
  220HFI     F4 3125   2.983   1.422   3.012 -0.4820 -0.0107 -0.0076
  220HFI     F5 3126   3.023   1.383   2.805 -0.3675  0.6043  0.2192
  220HFI     F6 3127   2.818   1.383   2.886 -0.2220  0.1722 -0.7141
  220HFI     H1 3128   2.741   1.671   2.933 -0.3582 -0.4890 -0.4245
  220HFI     H2 3129   3.017   1.631   2.856  0.2155  0.2430 -0.1192
  221HFI     O1 3130   1.177   1.487   2.269 -0.1125  0.0001 -0.2734
  221HFI     C1 3131   1.241   1.365   2.306  0.4630  0.4995  0.6750
  221HFI     C2 3132   1.142   1.238   2.311 -0.4788 -0.5117 -0.2568
  221HFI     F1 3133   1.201   1.115   2.313  0.3175  0.3442  0.2508
  221HFI     F2 3134   1.066   1.240   2.198  0.2537  0.0639 -0.3412
  221HFI     F3 3135   1.056   1.245   2.417 -0.4339 -0.6321  0.3401
  221HFI     C3 3136   1.323   1.378   2.439 -0.1049 -0.5227 -1.4515
  221HFI     F4 3137   1.406   1.485   2.423  0.1193  0.4575  0.1703
  221HFI     F5 3138   1.400   1.272   2.455 -0.5172 -0.4473  0.2147
  221HFI     F6 3139   1.239   1.401   2.541  0.5988  0.0390  0.0070
  221HFI     H1 3140   1.137   1.476   2.181  1.0988 -2.4739 -0.5702
  221HFI     H2 3141   1.321   1.334   2.238  0.5242 -1.2843  1.4997
  222HFI     O1 3142   1.627   1.352   2.251  0.0856  0.5051  0.6457
  222HFI     C1 3143   1.716   1.315   2.362  0.1373  0.3501 -0.1083
  222HFI     C2 3144   1.827   1.414   2.380 -0.1809 -0.1050 -0.3770
  222HFI     F1 3145   1.772   1.531   2.410  0.2651 -0.2591 -0.7636
  222HFI     F2 3146   1.897   1.438   2.267 -0.2280  0.1557 -0.1814
  222HFI     F3 3147   1.919   1.382   2.477  0.3761 -0.2995  0.0858
  222HFI     C3 3148   1.764   1.161   2.345 -0.6006  0.2198  0.1405
  222HFI     F4 3149   1.855   1.115   2.435 -0.3064 -0.1039  0.4877
  222HFI     F5 3150   1.811   1.137   2.221  0.3074 -0.0793  0.3853
  222HFI     F6 3151   1.653   1.087   2.362  0.1178  0.0509 -0.1984
  222HFI     H1 3152   1.659   1.312   2.168  0.4947 -0.4709  1.2682
  222HFI     H2 3153   1.661   1.332   2.455 -0.8952 -1.7710 -0.2941
  223HFI     O1 3154   2.520   3.035   3.701  0.0032 -0.1142  0.2940
  223HFI     C1 3155   2.567   3.155   3.629  1.0888  0.7281 -0.0767
  223HFI     C2 3156   2.506   3.284   3.687  0.3169  0.8082 -0.3422
  223HFI     F1 3157   2.531   3.283   3.818 -0.2996 -0.2075  0.0171
  223HFI     F2 3158   2.373   3.285   3.664 -0.0118 -0.0207  0.0308
  223HFI     F3 3159   2.558   3.395   3.635 -0.2539  0.1909 -0.1011
  223HFI     C3 3160   2.540   3.145   3.473  0.4426 -0.4051  0.3461
  223HFI     F4 3161   2.413   3.103   3.450 -0.6727  0.0839  0.6362
  223HFI     F5 3162   2.624   3.053   3.410  0.2984 -0.3597 -0.3085
  223HFI     F6 3163   2.556   3.265   3.409  0.4090 -0.4063 -0.4713
  223HFI     H1 3164   2.430   3.046   3.735  0.0271  1.2465 -0.0404
  223HFI     H2 3165   2.676   3.165   3.642  1.1662  2.4224 -1.7470
  224HFI     O1 3166   0.349   2.013   2.852  0.2536 -0.4283  0.4272
  224HFI     C1 3167   0.210   1.980   2.823 -0.4575  0.8141 -0.0124
  224HFI     C2 3168   0.133   2.103   2.760 -0.2695  0.2347 -0.4938
  224HFI     F1 3169   0.012   2.072   2.708 -0.1501  0.6863 -0.0214
  224HFI     F2 3170   0.197   2.153   2.649  0.1223 -0.6094  0.0739
  224HFI     F3 3171   0.113   2.203   2.844 -0.1000  0.3785 -0.1623
  224HFI     C3 3172   0.130   1.928   2.956  0.5614 -0.4982  0.2537
  224HFI     F4 3173   0.009   1.888   2.933 -0.2132  0.1592  0.2080
  224HFI     F5 3174   0.122   2.022   3.054  0.5304  0.2696  0.1851
  224HFI     F6 3175   0.194   1.824   3.011 -0.4618 -0.6471 -0.3224
  224HFI     H1 3176   0.402   2.034   2.773 -1.6915  1.7278 -0.3587
  224HFI     H2 3177   0.208   1.895   2.753  0.0428 -0.2226  1.2115
  225HFI     O1 3178   0.622   1.647   0.644  0.1929  0.2300  0.0986
  225HFI     C1 3179   0.750   1.652   0.564  0.9053  0.1143 -0.5605
  225HFI     C2 3180   0.739   1.761   0.455  0.5534 -0.5385  0.2461
  225HFI     F1 3181   0.640   1.742   0.366  0.0844 -0.0382  0.2559
  225HFI     F2 3182   0.857   1.763   0.391 -0.0038  0.1951  0.8765
  225HFI     F3 3183   0.716   1.882   0.506  1.0480 -0.2702  0.2168
  225HFI     C3 3184   0.779   1.507   0.506 -1.2339 -0.1205 -0.0585
  225HFI     F4 3185   0.676   1.464   0.430  0.0593  0.2175 -0.0037
  225HFI     F5 3186   0.795   1.416   0.602 -0.1077 -0.2102  0.3288
  225HFI     F6 3187   0.902   1.508   0.439  0.3759  0.2359 -0.0266
  225HFI     H1 3188   0.565   1.608   0.576 -0.1214  1.0630 -0.1159
  225HFI     H2 3189   0.837   1.664   0.630  0.2803 -0.6414  0.4036
  226HFI     O1 3190   2.301   2.516   2.493 -0.2502 -0.0582  0.4850
  226HFI     C1 3191   2.223   2.420   2.417 -0.2901  0.3822 -0.2988
  226HFI     C2 3192   2.127   2.343   2.512  0.3580  0.3137  0.3918
  226HFI     F1 3193   2.205   2.267   2.604  0.1283 -0.2283 -0.4013
  226HFI     F2 3194   2.054   2.259   2.438  0.2414  0.0674  0.4143
  226HFI     F3 3195   2.048   2.424   2.589 -0.0180  0.3259 -0.0885
  226HFI     C3 3196   2.319   2.330   2.331  0.3787 -0.0184  0.3191
  226HFI     F4 3197   2.416   2.281   2.413  0.5650  0.0094 -0.1358
  226HFI     F5 3198   2.379   2.409   2.238  0.1484 -0.2920 -0.2172
  226HFI     F6 3199   2.255   2.234   2.266  0.7540 -0.0482  0.1328
  226HFI     H1 3200   2.355   2.573   2.437  0.3430 -0.0366  1.0734
  226HFI     H2 3201   2.162   2.475   2.345 -2.6901  1.0972  2.2045
  227HFI     O1 3202   2.154   0.621   2.321 -0.5090 -0.2115 -0.1929
  227HFI     C1 3203   2.014   0.616   2.269  0.3930 -0.2365  0.0289
  227HFI     C2 3204   1.914   0.711   2.337  0.5023  0.1786  0.4058
  227HFI     F1 3205   1.787   0.681   2.297 -0.6602  0.3142 -0.3425
  227HFI     F2 3206   1.942   0.838   2.321 -0.3356 -0.4236 -0.0134
  227HFI     F3 3207   1.917   0.692   2.471 -0.7074 -0.0632 -1.0330
  227HFI     C3 3208   1.960   0.470   2.270  0.0199 -0.4706 -0.3601
  227HFI     F4 3209   1.950   0.419   2.393  0.5621 -0.5860  0.1798
  227HFI     F5 3210   2.044   0.390   2.204 -0.4753 -0.0811  0.1593
  227HFI     F6 3211   1.838   0.458   2.208  0.0028  0.2963 -0.0157
  227HFI     H1 3212   2.154   0.590   2.413  1.7949 -0.3564 -0.2100
  227HFI     H2 3213   2.023   0.649   2.165 -2.6611  0.7304  0.0313
  228HFI     O1 3214   2.887   1.746   3.732  0.0483 -0.1923  0.2518
  228HFI     C1 3215   2.751   1.729   3.777 -0.3600 -0.3856 -0.2154
  228HFI     C2 3216   2.718   1.588   3.833 -0.4720  0.4111 -0.1164
  228HFI     F1 3217   2.595   1.579   3.881  0.2951  0.1082 -0.1076
  228HFI     F2 3218   2.804   1.558   3.937  0.1230 -0.0742 -0.0573
  228HFI     F3 3219   2.729   1.491   3.741  0.1854 -0.5927 -0.5153
  228HFI     C3 3220   2.647   1.757   3.657  0.4870  0.1856  0.8481
  228HFI     F4 3221   2.671   1.686   3.551  0.0931  0.4103 -0.2653
  228HFI     F5 3222   2.656   1.880   3.612 -0.3186  0.0858 -0.1883
  228HFI     F6 3223   2.516   1.733   3.699 -0.1752 -0.5350 -0.7626
  228HFI     H1 3224   2.938   1.671   3.767 -0.8997 -1.8242 -1.7511
  228HFI     H2 3225   2.717   1.798   3.856 -0.5868 -1.4408  0.6252
   3.40320   3.43847   3.80000
