HFIP comparator n4
 3225
    1GR      C1    1   0.000   0.000   1.900  0.0000  0.0000  0.0000
    1GR      C2    2   0.142   0.000   1.900  0.0000  0.0000  0.0000
    1GR      C3    3   0.213   0.123   1.900  0.0000  0.0000  0.0000
    1GR      C4    4   0.354   0.123   1.900  0.0000  0.0000  0.0000
    1GR      C5    5   0.000   0.246   1.900  0.0000  0.0000  0.0000
    1GR      C6    6   0.142   0.246   1.900  0.0000  0.0000  0.0000
    1GR      C7    7   0.213   0.368   1.900  0.0000  0.0000  0.0000
    1GR      C8    8   0.354   0.368   1.900  0.0000  0.0000  0.0000
    1GR      C9    9   0.000   0.491   1.900  0.0000  0.0000  0.0000
    1GR     C10   10   0.142   0.491   1.900  0.0000  0.0000  0.0000
    1GR     C11   11   0.213   0.614   1.900  0.0000  0.0000  0.0000
    1GR     C12   12   0.354   0.614   1.900  0.0000  0.0000  0.0000
    1GR     C13   13   0.000   0.737   1.900  0.0000  0.0000  0.0000
    1GR     C14   14   0.142   0.737   1.900  0.0000  0.0000  0.0000
    1GR     C15   15   0.213   0.860   1.900  0.0000  0.0000  0.0000
    1GR     C16   16   0.354   0.860   1.900  0.0000  0.0000  0.0000
    1GR     C17   17   0.000   0.982   1.900  0.0000  0.0000  0.0000
    1GR     C18   18   0.142   0.982   1.900  0.0000  0.0000  0.0000
    1GR     C19   19   0.213   1.105   1.900  0.0000  0.0000  0.0000
    1GR     C20   20   0.354   1.105   1.900  0.0000  0.0000  0.0000
    1GR     C21   21   0.000   1.228   1.900  0.0000  0.0000  0.0000
    1GR     C22   22   0.142   1.228   1.900  0.0000  0.0000  0.0000
    1GR     C23   23   0.213   1.351   1.900  0.0000  0.0000  0.0000
    1GR     C24   24   0.354   1.351   1.900  0.0000  0.0000  0.0000
    1GR     C25   25   0.000   1.474   1.900  0.0000  0.0000  0.0000
    1GR     C26   26   0.142   1.474   1.900  0.0000  0.0000  0.0000
    1GR     C27   27   0.213   1.596   1.900  0.0000  0.0000  0.0000
    1GR     C28   28   0.354   1.596   1.900  0.0000  0.0000  0.0000
    1GR     C29   29   0.000   1.719   1.900  0.0000  0.0000  0.0000
    1GR     C30   30   0.142   1.719   1.900  0.0000  0.0000  0.0000
    1GR     C31   31   0.213   1.842   1.900  0.0000  0.0000  0.0000
    1GR     C32   32   0.354   1.842   1.900  0.0000  0.0000  0.0000
    1GR     C33   33   0.000   1.965   1.900  0.0000  0.0000  0.0000
    1GR     C34   34   0.142   1.965   1.900  0.0000  0.0000  0.0000
    1GR     C35   35   0.213   2.088   1.900  0.0000  0.0000  0.0000
    1GR     C36   36   0.354   2.088   1.900  0.0000  0.0000  0.0000
    1GR     C37   37   0.000   2.210   1.900  0.0000  0.0000  0.0000
    1GR     C38   38   0.142   2.210   1.900  0.0000  0.0000  0.0000
    1GR     C39   39   0.213   2.333   1.900  0.0000  0.0000  0.0000
    1GR     C40   40   0.354   2.333   1.900  0.0000  0.0000  0.0000
    1GR     C41   41   0.000   2.456   1.900  0.0000  0.0000  0.0000
    1GR     C42   42   0.142   2.456   1.900  0.0000  0.0000  0.0000
    1GR     C43   43   0.213   2.579   1.900  0.0000  0.0000  0.0000
    1GR     C44   44   0.354   2.579   1.900  0.0000  0.0000  0.0000
    1GR     C45   45   0.000   2.702   1.900  0.0000  0.0000  0.0000
    1GR     C46   46   0.142   2.702   1.900  0.0000  0.0000  0.0000
    1GR     C47   47   0.213   2.824   1.900  0.0000  0.0000  0.0000
    1GR     C48   48   0.354   2.824   1.900  0.0000  0.0000  0.0000
    1GR     C49   49   0.000   2.947   1.900  0.0000  0.0000  0.0000
    1GR     C50   50   0.142   2.947   1.900  0.0000  0.0000  0.0000
    1GR     C51   51   0.213   3.070   1.900  0.0000  0.0000  0.0000
    1GR     C52   52   0.354   3.070   1.900  0.0000  0.0000  0.0000
    1GR     C53   53   0.000   3.193   1.900  0.0000  0.0000  0.0000
    1GR     C54   54   0.142   3.193   1.900  0.0000  0.0000  0.0000
    1GR     C55   55   0.213   3.316   1.900  0.0000  0.0000  0.0000
    1GR     C56   56   0.354   3.316   1.900  0.0000  0.0000  0.0000
    1GR     C57   57   0.425   0.000   1.900  0.0000  0.0000  0.0000
    1GR     C58   58   0.567   0.000   1.900  0.0000  0.0000  0.0000
    1GR     C59   59   0.638   0.123   1.900  0.0000  0.0000  0.0000
    1GR     C60   60   0.780   0.123   1.900  0.0000  0.0000  0.0000
    1GR     C61   61   0.425   0.246   1.900  0.0000  0.0000  0.0000
    1GR     C62   62   0.567   0.246   1.900  0.0000  0.0000  0.0000
    1GR     C63   63   0.638   0.368   1.900  0.0000  0.0000  0.0000
    1GR     C64   64   0.780   0.368   1.900  0.0000  0.0000  0.0000
    1GR     C65   65   0.425   0.491   1.900  0.0000  0.0000  0.0000
    1GR     C66   66   0.567   0.491   1.900  0.0000  0.0000  0.0000
    1GR     C67   67   0.638   0.614   1.900  0.0000  0.0000  0.0000
    1GR     C68   68   0.780   0.614   1.900  0.0000  0.0000  0.0000
    1GR     C69   69   0.425   0.737   1.900  0.0000  0.0000  0.0000
    1GR     C70   70   0.567   0.737   1.900  0.0000  0.0000  0.0000
    1GR     C71   71   0.638   0.860   1.900  0.0000  0.0000  0.0000
    1GR     C72   72   0.780   0.860   1.900  0.0000  0.0000  0.0000
    1GR     C73   73   0.425   0.982   1.900  0.0000  0.0000  0.0000
    1GR     C74   74   0.567   0.982   1.900  0.0000  0.0000  0.0000
    1GR     C75   75   0.638   1.105   1.900  0.0000  0.0000  0.0000
    1GR     C76   76   0.780   1.105   1.900  0.0000  0.0000  0.0000
    1GR     C77   77   0.425   1.228   1.900  0.0000  0.0000  0.0000
    1GR     C78   78   0.567   1.228   1.900  0.0000  0.0000  0.0000
    1GR     C79   79   0.638   1.351   1.900  0.0000  0.0000  0.0000
    1GR     C80   80   0.780   1.351   1.900  0.0000  0.0000  0.0000
    1GR     C81   81   0.425   1.474   1.900  0.0000  0.0000  0.0000
    1GR     C82   82   0.567   1.474   1.900  0.0000  0.0000  0.0000
    1GR     C83   83   0.638   1.596   1.900  0.0000  0.0000  0.0000
    1GR     C84   84   0.780   1.596   1.900  0.0000  0.0000  0.0000
    1GR     C85   85   0.425   1.719   1.900  0.0000  0.0000  0.0000
    1GR     C86   86   0.567   1.719   1.900  0.0000  0.0000  0.0000
    1GR     C87   87   0.638   1.842   1.900  0.0000  0.0000  0.0000
    1GR     C88   88   0.780   1.842   1.900  0.0000  0.0000  0.0000
    1GR     C89   89   0.425   1.965   1.900  0.0000  0.0000  0.0000
    1GR     C90   90   0.567   1.965   1.900  0.0000  0.0000  0.0000
    1GR     C91   91   0.638   2.088   1.900  0.0000  0.0000  0.0000
    1GR     C92   92   0.780   2.088   1.900  0.0000  0.0000  0.0000
    1GR     C93   93   0.425   2.210   1.900  0.0000  0.0000  0.0000
    1GR     C94   94   0.567   2.210   1.900  0.0000  0.0000  0.0000
    1GR     C95   95   0.638   2.333   1.900  0.0000  0.0000  0.0000
    1GR     C96   96   0.780   2.333   1.900  0.0000  0.0000  0.0000
    1GR     C97   97   0.425   2.456   1.900  0.0000  0.0000  0.0000
    1GR     C98   98   0.567   2.456   1.900  0.0000  0.0000  0.0000
    1GR     C99   99   0.638   2.579   1.900  0.0000  0.0000  0.0000
    1GR    C100  100   0.780   2.579   1.900  0.0000  0.0000  0.0000
    1GR    C101  101   0.425   2.702   1.900  0.0000  0.0000  0.0000
    1GR    C102  102   0.567   2.702   1.900  0.0000  0.0000  0.0000
    1GR    C103  103   0.638   2.824   1.900  0.0000  0.0000  0.0000
    1GR    C104  104   0.780   2.824   1.900  0.0000  0.0000  0.0000
    1GR    C105  105   0.425   2.947   1.900  0.0000  0.0000  0.0000
    1GR    C106  106   0.567   2.947   1.900  0.0000  0.0000  0.0000
    1GR    C107  107   0.638   3.070   1.900  0.0000  0.0000  0.0000
    1GR    C108  108   0.780   3.070   1.900  0.0000  0.0000  0.0000
    1GR    C109  109   0.425   3.193   1.900  0.0000  0.0000  0.0000
    1GR    C110  110   0.567   3.193   1.900  0.0000  0.0000  0.0000
    1GR    C111  111   0.638   3.316   1.900  0.0000  0.0000  0.0000
    1GR    C112  112   0.780   3.316   1.900  0.0000  0.0000  0.0000
    1GR    C113  113   0.851   0.000   1.900  0.0000  0.0000  0.0000
    1GR    C114  114   0.993   0.000   1.900  0.0000  0.0000  0.0000
    1GR    C115  115   1.064   0.123   1.900  0.0000  0.0000  0.0000
    1GR    C116  116   1.205   0.123   1.900  0.0000  0.0000  0.0000
    1GR    C117  117   0.851   0.246   1.900  0.0000  0.0000  0.0000
    1GR    C118  118   0.993   0.246   1.900  0.0000  0.0000  0.0000
    1GR    C119  119   1.064   0.368   1.900  0.0000  0.0000  0.0000
    1GR    C120  120   1.205   0.368   1.900  0.0000  0.0000  0.0000
    1GR    C121  121   0.851   0.491   1.900  0.0000  0.0000  0.0000
    1GR    C122  122   0.993   0.491   1.900  0.0000  0.0000  0.0000
    1GR    C123  123   1.064   0.614   1.900  0.0000  0.0000  0.0000
    1GR    C124  124   1.205   0.614   1.900  0.0000  0.0000  0.0000
    1GR    C125  125   0.851   0.737   1.900  0.0000  0.0000  0.0000
    1GR    C126  126   0.993   0.737   1.900  0.0000  0.0000  0.0000
    1GR    C127  127   1.064   0.860   1.900  0.0000  0.0000  0.0000
    1GR    C128  128   1.205   0.860   1.900  0.0000  0.0000  0.0000
    1GR    C129  129   0.851   0.982   1.900  0.0000  0.0000  0.0000
    1GR    C130  130   0.993   0.982   1.900  0.0000  0.0000  0.0000
    1GR    C131  131   1.064   1.105   1.900  0.0000  0.0000  0.0000
    1GR    C132  132   1.205   1.105   1.900  0.0000  0.0000  0.0000
    1GR    C133  133   0.851   1.228   1.900  0.0000  0.0000  0.0000
    1GR    C134  134   0.993   1.228   1.900  0.0000  0.0000  0.0000
    1GR    C135  135   1.064   1.351   1.900  0.0000  0.0000  0.0000
    1GR    C136  136   1.205   1.351   1.900  0.0000  0.0000  0.0000
    1GR    C137  137   0.851   1.474   1.900  0.0000  0.0000  0.0000
    1GR    C138  138   0.993   1.474   1.900  0.0000  0.0000  0.0000
    1GR    C139  139   1.064   1.596   1.900  0.0000  0.0000  0.0000
    1GR    C140  140   1.205   1.596   1.900  0.0000  0.0000  0.0000
    1GR    C141  141   0.851   1.719   1.900  0.0000  0.0000  0.0000
    1GR    C142  142   0.993   1.719   1.900  0.0000  0.0000  0.0000
    1GR    C143  143   1.064   1.842   1.900  0.0000  0.0000  0.0000
    1GR    C144  144   1.205   1.842   1.900  0.0000  0.0000  0.0000
    1GR    C145  145   0.851   1.965   1.900  0.0000  0.0000  0.0000
    1GR    C146  146   0.993   1.965   1.900  0.0000  0.0000  0.0000
    1GR    C147  147   1.064   2.088   1.900  0.0000  0.0000  0.0000
    1GR    C148  148   1.205   2.088   1.900  0.0000  0.0000  0.0000
    1GR    C149  149   0.851   2.210   1.900  0.0000  0.0000  0.0000
    1GR    C150  150   0.993   2.210   1.900  0.0000  0.0000  0.0000
    1GR    C151  151   1.064   2.333   1.900  0.0000  0.0000  0.0000
    1GR    C152  152   1.205   2.333   1.900  0.0000  0.0000  0.0000
    1GR    C153  153   0.851   2.456   1.900  0.0000  0.0000  0.0000
    1GR    C154  154   0.993   2.456   1.900  0.0000  0.0000  0.0000
    1GR    C155  155   1.064   2.579   1.900  0.0000  0.0000  0.0000
    1GR    C156  156   1.205   2.579   1.900  0.0000  0.0000  0.0000
    1GR    C157  157   0.851   2.702   1.900  0.0000  0.0000  0.0000
    1GR    C158  158   0.993   2.702   1.900  0.0000  0.0000  0.0000
    1GR    C159  159   1.064   2.824   1.900  0.0000  0.0000  0.0000
    1GR    C160  160   1.205   2.824   1.900  0.0000  0.0000  0.0000
    1GR    C161  161   0.851   2.947   1.900  0.0000  0.0000  0.0000
    1GR    C162  162   0.993   2.947   1.900  0.0000  0.0000  0.0000
    1GR    C163  163   1.064   3.070   1.900  0.0000  0.0000  0.0000
    1GR    C164  164   1.205   3.070   1.900  0.0000  0.0000  0.0000
    1GR    C165  165   0.851   3.193   1.900  0.0000  0.0000  0.0000
    1GR    C166  166   0.993   3.193   1.900  0.0000  0.0000  0.0000
    1GR    C167  167   1.064   3.316   1.900  0.0000  0.0000  0.0000
    1GR    C168  168   1.205   3.316   1.900  0.0000  0.0000  0.0000
    1GR    C169  169   1.276   0.000   1.900  0.0000  0.0000  0.0000
    1GR    C170  170   1.418   0.000   1.900  0.0000  0.0000  0.0000
    1GR    C171  171   1.489   0.123   1.900  0.0000  0.0000  0.0000
    1GR    C172  172   1.631   0.123   1.900  0.0000  0.0000  0.0000
    1GR    C173  173   1.276   0.246   1.900  0.0000  0.0000  0.0000
    1GR    C174  174   1.418   0.246   1.900  0.0000  0.0000  0.0000
    1GR    C175  175   1.489   0.368   1.900  0.0000  0.0000  0.0000
    1GR    C176  176   1.631   0.368   1.900  0.0000  0.0000  0.0000
    1GR    C177  177   1.276   0.491   1.900  0.0000  0.0000  0.0000
    1GR    C178  178   1.418   0.491   1.900  0.0000  0.0000  0.0000
    1GR    C179  179   1.489   0.614   1.900  0.0000  0.0000  0.0000
    1GR    C180  180   1.631   0.614   1.900  0.0000  0.0000  0.0000
    1GR    C181  181   1.276   0.737   1.900  0.0000  0.0000  0.0000
    1GR    C182  182   1.418   0.737   1.900  0.0000  0.0000  0.0000
    1GR    C183  183   1.489   0.860   1.900  0.0000  0.0000  0.0000
    1GR    C184  184   1.631   0.860   1.900  0.0000  0.0000  0.0000
    1GR    C185  185   1.276   0.982   1.900  0.0000  0.0000  0.0000
    1GR    C186  186   1.418   0.982   1.900  0.0000  0.0000  0.0000
    1GR    C187  187   1.489   1.105   1.900  0.0000  0.0000  0.0000
    1GR    C188  188   1.631   1.105   1.900  0.0000  0.0000  0.0000
    1GR    C189  189   1.276   1.228   1.900  0.0000  0.0000  0.0000
    1GR    C190  190   1.418   1.228   1.900  0.0000  0.0000  0.0000
    1GR    C191  191   1.489   1.351   1.900  0.0000  0.0000  0.0000
    1GR    C192  192   1.631   1.351   1.900  0.0000  0.0000  0.0000
    1GR    C193  193   1.276   1.474   1.900  0.0000  0.0000  0.0000
    1GR    C194  194   1.418   1.474   1.900  0.0000  0.0000  0.0000
    1GR    C195  195   1.489   1.596   1.900  0.0000  0.0000  0.0000
    1GR    C196  196   1.631   1.596   1.900  0.0000  0.0000  0.0000
    1GR    C197  197   1.276   1.719   1.900  0.0000  0.0000  0.0000
    1GR    C198  198   1.418   1.719   1.900  0.0000  0.0000  0.0000
    1GR    C199  199   1.489   1.842   1.900  0.0000  0.0000  0.0000
    1GR    C200  200   1.631   1.842   1.900  0.0000  0.0000  0.0000
    1GR    C201  201   1.276   1.965   1.900  0.0000  0.0000  0.0000
    1GR    C202  202   1.418   1.965   1.900  0.0000  0.0000  0.0000
    1GR    C203  203   1.489   2.088   1.900  0.0000  0.0000  0.0000
    1GR    C204  204   1.631   2.088   1.900  0.0000  0.0000  0.0000
    1GR    C205  205   1.276   2.210   1.900  0.0000  0.0000  0.0000
    1GR    C206  206   1.418   2.210   1.900  0.0000  0.0000  0.0000
    1GR    C207  207   1.489   2.333   1.900  0.0000  0.0000  0.0000
    1GR    C208  208   1.631   2.333   1.900  0.0000  0.0000  0.0000
    1GR    C209  209   1.276   2.456   1.900  0.0000  0.0000  0.0000
    1GR    C210  210   1.418   2.456   1.900  0.0000  0.0000  0.0000
    1GR    C211  211   1.489   2.579   1.900  0.0000  0.0000  0.0000
    1GR    C212  212   1.631   2.579   1.900  0.0000  0.0000  0.0000
    1GR    C213  213   1.276   2.702   1.900  0.0000  0.0000  0.0000
    1GR    C214  214   1.418   2.702   1.900  0.0000  0.0000  0.0000
    1GR    C215  215   1.489   2.824   1.900  0.0000  0.0000  0.0000
    1GR    C216  216   1.631   2.824   1.900  0.0000  0.0000  0.0000
    1GR    C217  217   1.276   2.947   1.900  0.0000  0.0000  0.0000
    1GR    C218  218   1.418   2.947   1.900  0.0000  0.0000  0.0000
    1GR    C219  219   1.489   3.070   1.900  0.0000  0.0000  0.0000
    1GR    C220  220   1.631   3.070   1.900  0.0000  0.0000  0.0000
    1GR    C221  221   1.276   3.193   1.900  0.0000  0.0000  0.0000
    1GR    C222  222   1.418   3.193   1.900  0.0000  0.0000  0.0000
    1GR    C223  223   1.489   3.316   1.900  0.0000  0.0000  0.0000
    1GR    C224  224   1.631   3.316   1.900  0.0000  0.0000  0.0000
    1GR    C225  225   1.702   0.000   1.900  0.0000  0.0000  0.0000
    1GR    C226  226   1.843   0.000   1.900  0.0000  0.0000  0.0000
    1GR    C227  227   1.914   0.123   1.900  0.0000  0.0000  0.0000
    1GR    C228  228   2.056   0.123   1.900  0.0000  0.0000  0.0000
    1GR    C229  229   1.702   0.246   1.900  0.0000  0.0000  0.0000
    1GR    C230  230   1.843   0.246   1.900  0.0000  0.0000  0.0000
    1GR    C231  231   1.914   0.368   1.900  0.0000  0.0000  0.0000
    1GR    C232  232   2.056   0.368   1.900  0.0000  0.0000  0.0000
    1GR    C233  233   1.702   0.491   1.900  0.0000  0.0000  0.0000
    1GR    C234  234   1.843   0.491   1.900  0.0000  0.0000  0.0000
    1GR    C235  235   1.914   0.614   1.900  0.0000  0.0000  0.0000
    1GR    C236  236   2.056   0.614   1.900  0.0000  0.0000  0.0000
    1GR    C237  237   1.702   0.737   1.900  0.0000  0.0000  0.0000
    1GR    C238  238   1.843   0.737   1.900  0.0000  0.0000  0.0000
    1GR    C239  239   1.914   0.860   1.900  0.0000  0.0000  0.0000
    1GR    C240  240   2.056   0.860   1.900  0.0000  0.0000  0.0000
    1GR    C241  241   1.702   0.982   1.900  0.0000  0.0000  0.0000
    1GR    C242  242   1.843   0.982   1.900  0.0000  0.0000  0.0000
    1GR    C243  243   1.914   1.105   1.900  0.0000  0.0000  0.0000
    1GR    C244  244   2.056   1.105   1.900  0.0000  0.0000  0.0000
    1GR    C245  245   1.702   1.228   1.900  0.0000  0.0000  0.0000
    1GR    C246  246   1.843   1.228   1.900  0.0000  0.0000  0.0000
    1GR    C247  247   1.914   1.351   1.900  0.0000  0.0000  0.0000
    1GR    C248  248   2.056   1.351   1.900  0.0000  0.0000  0.0000
    1GR    C249  249   1.702   1.474   1.900  0.0000  0.0000  0.0000
    1GR    C250  250   1.843   1.474   1.900  0.0000  0.0000  0.0000
    1GR    C251  251   1.914   1.596   1.900  0.0000  0.0000  0.0000
    1GR    C252  252   2.056   1.596   1.900  0.0000  0.0000  0.0000
    1GR    C253  253   1.702   1.719   1.900  0.0000  0.0000  0.0000
    1GR    C254  254   1.843   1.719   1.900  0.0000  0.0000  0.0000
    1GR    C255  255   1.914   1.842   1.900  0.0000  0.0000  0.0000
    1GR    C256  256   2.056   1.842   1.900  0.0000  0.0000  0.0000
    1GR    C257  257   1.702   1.965   1.900  0.0000  0.0000  0.0000
    1GR    C258  258   1.843   1.965   1.900  0.0000  0.0000  0.0000
    1GR    C259  259   1.914   2.088   1.900  0.0000  0.0000  0.0000
    1GR    C260  260   2.056   2.088   1.900  0.0000  0.0000  0.0000
    1GR    C261  261   1.702   2.210   1.900  0.0000  0.0000  0.0000
    1GR    C262  262   1.843   2.210   1.900  0.0000  0.0000  0.0000
    1GR    C263  263   1.914   2.333   1.900  0.0000  0.0000  0.0000
    1GR    C264  264   2.056   2.333   1.900  0.0000  0.0000  0.0000
    1GR    C265  265   1.702   2.456   1.900  0.0000  0.0000  0.0000
    1GR    C266  266   1.843   2.456   1.900  0.0000  0.0000  0.0000
    1GR    C267  267   1.914   2.579   1.900  0.0000  0.0000  0.0000
    1GR    C268  268   2.056   2.579   1.900  0.0000  0.0000  0.0000
    1GR    C269  269   1.702   2.702   1.900  0.0000  0.0000  0.0000
    1GR    C270  270   1.843   2.702   1.900  0.0000  0.0000  0.0000
    1GR    C271  271   1.914   2.824   1.900  0.0000  0.0000  0.0000
    1GR    C272  272   2.056   2.824   1.900  0.0000  0.0000  0.0000
    1GR    C273  273   1.702   2.947   1.900  0.0000  0.0000  0.0000
    1GR    C274  274   1.843   2.947   1.900  0.0000  0.0000  0.0000
    1GR    C275  275   1.914   3.070   1.900  0.0000  0.0000  0.0000
    1GR    C276  276   2.056   3.070   1.900  0.0000  0.0000  0.0000
    1GR    C277  277   1.702   3.193   1.900  0.0000  0.0000  0.0000
    1GR    C278  278   1.843   3.193   1.900  0.0000  0.0000  0.0000
    1GR    C279  279   1.914   3.316   1.900  0.0000  0.0000  0.0000
    1GR    C280  280   2.056   3.316   1.900  0.0000  0.0000  0.0000
    1GR    C281  281   2.127   0.000   1.900  0.0000  0.0000  0.0000
    1GR    C282  282   2.269   0.000   1.900  0.0000  0.0000  0.0000
    1GR    C283  283   2.340   0.123   1.900  0.0000  0.0000  0.0000
    1GR    C284  284   2.481   0.123   1.900  0.0000  0.0000  0.0000
    1GR    C285  285   2.127   0.246   1.900  0.0000  0.0000  0.0000
    1GR    C286  286   2.269   0.246   1.900  0.0000  0.0000  0.0000
    1GR    C287  287   2.340   0.368   1.900  0.0000  0.0000  0.0000
    1GR    C288  288   2.481   0.368   1.900  0.0000  0.0000  0.0000
    1GR    C289  289   2.127   0.491   1.900  0.0000  0.0000  0.0000
    1GR    C290  290   2.269   0.491   1.900  0.0000  0.0000  0.0000
    1GR    C291  291   2.340   0.614   1.900  0.0000  0.0000  0.0000
    1GR    C292  292   2.481   0.614   1.900  0.0000  0.0000  0.0000
    1GR    C293  293   2.127   0.737   1.900  0.0000  0.0000  0.0000
    1GR    C294  294   2.269   0.737   1.900  0.0000  0.0000  0.0000
    1GR    C295  295   2.340   0.860   1.900  0.0000  0.0000  0.0000
    1GR    C296  296   2.481   0.860   1.900  0.0000  0.0000  0.0000
    1GR    C297  297   2.127   0.982   1.900  0.0000  0.0000  0.0000
    1GR    C298  298   2.269   0.982   1.900  0.0000  0.0000  0.0000
    1GR    C299  299   2.340   1.105   1.900  0.0000  0.0000  0.0000
    1GR    C300  300   2.481   1.105   1.900  0.0000  0.0000  0.0000
    1GR    C301  301   2.127   1.228   1.900  0.0000  0.0000  0.0000
    1GR    C302  302   2.269   1.228   1.900  0.0000  0.0000  0.0000
    1GR    C303  303   2.340   1.351   1.900  0.0000  0.0000  0.0000
    1GR    C304  304   2.481   1.351   1.900  0.0000  0.0000  0.0000
    1GR    C305  305   2.127   1.474   1.900  0.0000  0.0000  0.0000
    1GR    C306  306   2.269   1.474   1.900  0.0000  0.0000  0.0000
    1GR    C307  307   2.340   1.596   1.900  0.0000  0.0000  0.0000
    1GR    C308  308   2.481   1.596   1.900  0.0000  0.0000  0.0000
    1GR    C309  309   2.127   1.719   1.900  0.0000  0.0000  0.0000
    1GR    C310  310   2.269   1.719   1.900  0.0000  0.0000  0.0000
    1GR    C311  311   2.340   1.842   1.900  0.0000  0.0000  0.0000
    1GR    C312  312   2.481   1.842   1.900  0.0000  0.0000  0.0000
    1GR    C313  313   2.127   1.965   1.900  0.0000  0.0000  0.0000
    1GR    C314  314   2.269   1.965   1.900  0.0000  0.0000  0.0000
    1GR    C315  315   2.340   2.088   1.900  0.0000  0.0000  0.0000
    1GR    C316  316   2.481   2.088   1.900  0.0000  0.0000  0.0000
    1GR    C317  317   2.127   2.210   1.900  0.0000  0.0000  0.0000
    1GR    C318  318   2.269   2.210   1.900  0.0000  0.0000  0.0000
    1GR    C319  319   2.340   2.333   1.900  0.0000  0.0000  0.0000
    1GR    C320  320   2.481   2.333   1.900  0.0000  0.0000  0.0000
    1GR    C321  321   2.127   2.456   1.900  0.0000  0.0000  0.0000
    1GR    C322  322   2.269   2.456   1.900  0.0000  0.0000  0.0000
    1GR    C323  323   2.340   2.579   1.900  0.0000  0.0000  0.0000
    1GR    C324  324   2.481   2.579   1.900  0.0000  0.0000  0.0000
    1GR    C325  325   2.127   2.702   1.900  0.0000  0.0000  0.0000
    1GR    C326  326   2.269   2.702   1.900  0.0000  0.0000  0.0000
    1GR    C327  327   2.340   2.824   1.900  0.0000  0.0000  0.0000
    1GR    C328  328   2.481   2.824   1.900  0.0000  0.0000  0.0000
    1GR    C329  329   2.127   2.947   1.900  0.0000  0.0000  0.0000
    1GR    C330  330   2.269   2.947   1.900  0.0000  0.0000  0.0000
    1GR    C331  331   2.340   3.070   1.900  0.0000  0.0000  0.0000
    1GR    C332  332   2.481   3.070   1.900  0.0000  0.0000  0.0000
    1GR    C333  333   2.127   3.193   1.900  0.0000  0.0000  0.0000
    1GR    C334  334   2.269   3.193   1.900  0.0000  0.0000  0.0000
    1GR    C335  335   2.340   3.316   1.900  0.0000  0.0000  0.0000
    1GR    C336  336   2.481   3.316   1.900  0.0000  0.0000  0.0000
    1GR    C337  337   2.552   0.000   1.900  0.0000  0.0000  0.0000
    1GR    C338  338   2.694   0.000   1.900  0.0000  0.0000  0.0000
    1GR    C339  339   2.765   0.123   1.900  0.0000  0.0000  0.0000
    1GR    C340  340   2.907   0.123   1.900  0.0000  0.0000  0.0000
    1GR    C341  341   2.552   0.246   1.900  0.0000  0.0000  0.0000
    1GR    C342  342   2.694   0.246   1.900  0.0000  0.0000  0.0000
    1GR    C343  343   2.765   0.368   1.900  0.0000  0.0000  0.0000
    1GR    C344  344   2.907   0.368   1.900  0.0000  0.0000  0.0000
    1GR    C345  345   2.552   0.491   1.900  0.0000  0.0000  0.0000
    1GR    C346  346   2.694   0.491   1.900  0.0000  0.0000  0.0000
    1GR    C347  347   2.765   0.614   1.900  0.0000  0.0000  0.0000
    1GR    C348  348   2.907   0.614   1.900  0.0000  0.0000  0.0000
    1GR    C349  349   2.552   0.737   1.900  0.0000  0.0000  0.0000
    1GR    C350  350   2.694   0.737   1.900  0.0000  0.0000  0.0000
    1GR    C351  351   2.765   0.860   1.900  0.0000  0.0000  0.0000
    1GR    C352  352   2.907   0.860   1.900  0.0000  0.0000  0.0000
    1GR    C353  353   2.552   0.982   1.900  0.0000  0.0000  0.0000
    1GR    C354  354   2.694   0.982   1.900  0.0000  0.0000  0.0000
    1GR    C355  355   2.765   1.105   1.900  0.0000  0.0000  0.0000
    1GR    C356  356   2.907   1.105   1.900  0.0000  0.0000  0.0000
    1GR    C357  357   2.552   1.228   1.900  0.0000  0.0000  0.0000
    1GR    C358  358   2.694   1.228   1.900  0.0000  0.0000  0.0000
    1GR    C359  359   2.765   1.351   1.900  0.0000  0.0000  0.0000
    1GR    C360  360   2.907   1.351   1.900  0.0000  0.0000  0.0000
    1GR    C361  361   2.552   1.474   1.900  0.0000  0.0000  0.0000
    1GR    C362  362   2.694   1.474   1.900  0.0000  0.0000  0.0000
    1GR    C363  363   2.765   1.596   1.900  0.0000  0.0000  0.0000
    1GR    C364  364   2.907   1.596   1.900  0.0000  0.0000  0.0000
    1GR    C365  365   2.552   1.719   1.900  0.0000  0.0000  0.0000
    1GR    C366  366   2.694   1.719   1.900  0.0000  0.0000  0.0000
    1GR    C367  367   2.765   1.842   1.900  0.0000  0.0000  0.0000
    1GR    C368  368   2.907   1.842   1.900  0.0000  0.0000  0.0000
    1GR    C369  369   2.552   1.965   1.900  0.0000  0.0000  0.0000
    1GR    C370  370   2.694   1.965   1.900  0.0000  0.0000  0.0000
    1GR    C371  371   2.765   2.088   1.900  0.0000  0.0000  0.0000
    1GR    C372  372   2.907   2.088   1.900  0.0000  0.0000  0.0000
    1GR    C373  373   2.552   2.210   1.900  0.0000  0.0000  0.0000
    1GR    C374  374   2.694   2.210   1.900  0.0000  0.0000  0.0000
    1GR    C375  375   2.765   2.333   1.900  0.0000  0.0000  0.0000
    1GR    C376  376   2.907   2.333   1.900  0.0000  0.0000  0.0000
    1GR    C377  377   2.552   2.456   1.900  0.0000  0.0000  0.0000
    1GR    C378  378   2.694   2.456   1.900  0.0000  0.0000  0.0000
    1GR    C379  379   2.765   2.579   1.900  0.0000  0.0000  0.0000
    1GR    C380  380   2.907   2.579   1.900  0.0000  0.0000  0.0000
    1GR    C381  381   2.552   2.702   1.900  0.0000  0.0000  0.0000
    1GR    C382  382   2.694   2.702   1.900  0.0000  0.0000  0.0000
    1GR    C383  383   2.765   2.824   1.900  0.0000  0.0000  0.0000
    1GR    C384  384   2.907   2.824   1.900  0.0000  0.0000  0.0000
    1GR    C385  385   2.552   2.947   1.900  0.0000  0.0000  0.0000
    1GR    C386  386   2.694   2.947   1.900  0.0000  0.0000  0.0000
    1GR    C387  387   2.765   3.070   1.900  0.0000  0.0000  0.0000
    1GR    C388  388   2.907   3.070   1.900  0.0000  0.0000  0.0000
    1GR    C389  389   2.552   3.193   1.900  0.0000  0.0000  0.0000
    1GR    C390  390   2.694   3.193   1.900  0.0000  0.0000  0.0000
    1GR    C391  391   2.765   3.316   1.900  0.0000  0.0000  0.0000
    1GR    C392  392   2.907   3.316   1.900  0.0000  0.0000  0.0000
    1GR    C393  393   2.978   0.000   1.900  0.0000  0.0000  0.0000
    1GR    C394  394   3.120   0.000   1.900  0.0000  0.0000  0.0000
    1GR    C395  395   3.191   0.123   1.900  0.0000  0.0000  0.0000
    1GR    C396  396   3.332   0.123   1.900  0.0000  0.0000  0.0000
    1GR    C397  397   2.978   0.246   1.900  0.0000  0.0000  0.0000
    1GR    C398  398   3.120   0.246   1.900  0.0000  0.0000  0.0000
    1GR    C399  399   3.191   0.368   1.900  0.0000  0.0000  0.0000
    1GR    C400  400   3.332   0.368   1.900  0.0000  0.0000  0.0000
    1GR    C401  401   2.978   0.491   1.900  0.0000  0.0000  0.0000
    1GR    C402  402   3.120   0.491   1.900  0.0000  0.0000  0.0000
    1GR    C403  403   3.191   0.614   1.900  0.0000  0.0000  0.0000
    1GR    C404  404   3.332   0.614   1.900  0.0000  0.0000  0.0000
    1GR    C405  405   2.978   0.737   1.900  0.0000  0.0000  0.0000
    1GR    C406  406   3.120   0.737   1.900  0.0000  0.0000  0.0000
    1GR    C407  407   3.191   0.860   1.900  0.0000  0.0000  0.0000
    1GR    C408  408   3.332   0.860   1.900  0.0000  0.0000  0.0000
    1GR    C409  409   2.978   0.982   1.900  0.0000  0.0000  0.0000
    1GR    C410  410   3.120   0.982   1.900  0.0000  0.0000  0.0000
    1GR    C411  411   3.191   1.105   1.900  0.0000  0.0000  0.0000
    1GR    C412  412   3.332   1.105   1.900  0.0000  0.0000  0.0000
    1GR    C413  413   2.978   1.228   1.900  0.0000  0.0000  0.0000
    1GR    C414  414   3.120   1.228   1.900  0.0000  0.0000  0.0000
    1GR    C415  415   3.191   1.351   1.900  0.0000  0.0000  0.0000
    1GR    C416  416   3.332   1.351   1.900  0.0000  0.0000  0.0000
    1GR    C417  417   2.978   1.474   1.900  0.0000  0.0000  0.0000
    1GR    C418  418   3.120   1.474   1.900  0.0000  0.0000  0.0000
    1GR    C419  419   3.191   1.596   1.900  0.0000  0.0000  0.0000
    1GR    C420  420   3.332   1.596   1.900  0.0000  0.0000  0.0000
    1GR    C421  421   2.978   1.719   1.900  0.0000  0.0000  0.0000
    1GR    C422  422   3.120   1.719   1.900  0.0000  0.0000  0.0000
    1GR    C423  423   3.191   1.842   1.900  0.0000  0.0000  0.0000
    1GR    C424  424   3.332   1.842   1.900  0.0000  0.0000  0.0000
    1GR    C425  425   2.978   1.965   1.900  0.0000  0.0000  0.0000
    1GR    C426  426   3.120   1.965   1.900  0.0000  0.0000  0.0000
    1GR    C427  427   3.191   2.088   1.900  0.0000  0.0000  0.0000
    1GR    C428  428   3.332   2.088   1.900  0.0000  0.0000  0.0000
    1GR    C429  429   2.978   2.210   1.900  0.0000  0.0000  0.0000
    1GR    C430  430   3.120   2.210   1.900  0.0000  0.0000  0.0000
    1GR    C431  431   3.191   2.333   1.900  0.0000  0.0000  0.0000
    1GR    C432  432   3.332   2.333   1.900  0.0000  0.0000  0.0000
    1GR    C433  433   2.978   2.456   1.900  0.0000  0.0000  0.0000
    1GR    C434  434   3.120   2.456   1.900  0.0000  0.0000  0.0000
    1GR    C435  435   3.191   2.579   1.900  0.0000  0.0000  0.0000
    1GR    C436  436   3.332   2.579   1.900  0.0000  0.0000  0.0000
    1GR    C437  437   2.978   2.702   1.900  0.0000  0.0000  0.0000
    1GR    C438  438   3.120   2.702   1.900  0.0000  0.0000  0.0000
    1GR    C439  439   3.191   2.824   1.900  0.0000  0.0000  0.0000
    1GR    C440  440   3.332   2.824   1.900  0.0000  0.0000  0.0000
    1GR    C441  441   2.978   2.947   1.900  0.0000  0.0000  0.0000
    1GR    C442  442   3.120   2.947   1.900  0.0000  0.0000  0.0000
    1GR    C443  443   3.191   3.070   1.900  0.0000  0.0000  0.0000
    1GR    C444  444   3.332   3.070   1.900  0.0000  0.0000  0.0000
    1GR    C445  445   2.978   3.193   1.900  0.0000  0.0000  0.0000
    1GR    C446  446   3.120   3.193   1.900  0.0000  0.0000  0.0000
    1GR    C447  447   3.191   3.316   1.900  0.0000  0.0000  0.0000
    1GR    C448  448   3.332   3.316   1.900  0.0000  0.0000  0.0000
    2PMMA   CX1  449   3.108   1.806   3.427 -0.8236  0.3765 -0.1507
    2PMMA   CA2  450   3.098   1.962   3.430  0.0590 -0.2634 -0.1550
    2PMMA   CX3  451   3.104   2.010   3.570  0.0964  0.3546  0.5432
    2PMMA    C4  452   3.228   2.012   3.356 -0.2474 -0.7383 -0.3599
    2PMMA    O5  453   3.315   2.076   3.407 -0.0538 -0.0798 -0.5570
    2PMMA   OS6  454   3.219   2.007   3.222 -0.1175 -0.1504  0.2352
    2PMMA   CE7  455   3.318   2.040   3.132  0.4360 -0.7609  0.1412
    2PMMA   CX8  456   2.956   1.990   3.363 -0.0952 -0.2839 -0.2787
    2PMMA   CA9  457   2.900   2.140   3.360  0.0017  0.4604  0.6180
    2PMMA  CX10  458   2.820   2.173   3.485 -0.3369 -0.3336 -0.4957
    2PMMA   C11  459   2.797   2.124   3.246 -1.0237  0.1228 -0.3403
    2PMMA   O12  460   2.679   2.095   3.250  0.3129 -0.3353 -0.4392
    2PMMA  OS13  461   2.860   2.130   3.122  0.1295  0.4596  0.1488
    2PMMA  CE14  462   2.800   2.076   3.010 -0.0336 -0.2557  0.7334
    2PMMA  CX15  463   3.001   2.263   3.337 -0.1524 -0.1860 -0.4876
    2PMMA  CA16  464   2.966   2.414   3.304 -0.2796 -0.3273 -0.1940
    2PMMA  CX17  465   3.097   2.468   3.249  0.1934  0.4953 -0.4802
    2PMMA   C18  466   2.861   2.431   3.192 -0.0847 -0.2383 -0.1345
    2PMMA   O19  467   2.893   2.448   3.076  0.8527 -0.6117 -0.1398
    2PMMA  OS20  468   2.736   2.407   3.232 -0.0455 -0.1168  0.3985
    2PMMA  CE21  469   2.638   2.387   3.121 -0.1107 -0.4297 -0.1940
    2PMMA  CX22  470   2.928   2.479   3.445 -0.2176  0.1922  0.4256
    2PMMA  CA23  471   2.937   2.634   3.466 -0.5102  0.0680 -0.4216
    2PMMA  CX24  472   2.847   2.716   3.369 -0.1267 -0.1249 -0.6242
    2PMMA   C25  473   3.084   2.678   3.468  0.1283 -0.9507  0.0574
    2PMMA   O26  474   3.173   2.627   3.527 -0.0427  0.1585  0.1242
    2PMMA  OS27  475   3.112   2.777   3.383  0.3557  0.8567 -0.4447
    2PMMA  CE28  476   3.252   2.812   3.364  0.1429 -0.4059 -0.1942
    2PMMA  CX29  477   2.874   2.661   3.609 -0.0294 -0.2944 -0.2386
    2PMMA  HC30  478   3.120   1.762   3.328 -0.5976  0.7708 -0.2979
    2PMMA  HC31  479   3.198   1.782   3.484 -0.8144  1.3644  0.2615
    2PMMA  HC32  480   3.026   1.749   3.474  1.1528 -3.2199 -0.8692
    2PMMA  HC33  481   3.027   1.971   3.637  1.9635 -1.4565  1.7029
    2PMMA  HC34  482   3.112   2.118   3.586  5.6073  0.5902 -2.6033
    2PMMA  HC35  483   3.193   1.975   3.623  0.5713  2.9430  1.5569
    2PMMA  H136  484   3.419   2.035   3.174 -0.1384 -1.5325  1.4738
    2PMMA  H137  485   3.304   2.144   3.105  0.9632 -0.3280  1.4865
    2PMMA  H138  486   3.308   1.979   3.042 -2.7929 -1.8365  1.1631
    2PMMA  HC39  487   2.955   1.942   3.265  0.0761 -0.7503 -0.0528
    2PMMA  HC40  488   2.887   1.922   3.414  0.2291  0.1443  0.7423
    2PMMA  HC41  489   2.763   2.085   3.517 -0.7261  0.5479  1.2773
    2PMMA  HC42  490   2.874   2.198   3.577 -0.6637 -1.9544  0.1649
    2PMMA  HC43  491   2.750   2.254   3.463  0.2404 -0.1578 -1.7682
    2PMMA  H144  492   2.799   1.967   3.017  3.5796 -0.3999 -0.4331
    2PMMA  H145  493   2.855   2.098   2.919 -0.0397 -1.4376  0.4438
    2PMMA  H146  494   2.697   2.113   3.003  0.4618  1.0414  0.1190
    2PMMA  HC47  495   3.070   2.253   3.421 -1.3338 -0.1261  0.5182
    2PMMA  HC48  496   3.058   2.224   3.252  0.5696 -0.0024 -0.0883
    2PMMA  HC49  497   3.183   2.443   3.312  1.4739 -0.7023 -2.6266
    2PMMA  HC50  498   3.101   2.575   3.226 -0.7901  1.0822  1.9110
    2PMMA  HC51  499   3.127   2.419   3.155  1.7023 -1.2026  0.8472
    2PMMA  H152  500   2.545   2.345   3.160  0.2582 -1.0342  0.0354
    2PMMA  H153  501   2.681   2.321   3.046 -1.7200 -1.4136 -0.2659
    2PMMA  H154  502   2.629   2.486   3.075 -0.3730  0.3713  1.5375
    2PMMA  HC55  503   2.825   2.448   3.468 -0.0583 -0.2279  0.5773
    2PMMA  HC56  504   2.994   2.434   3.520 -0.2642  1.5100  1.2756
    2PMMA  HC57  505   2.742   2.685   3.361  0.1798 -1.0950 -0.9456
    2PMMA  HC58  506   2.847   2.819   3.406  1.2272  0.0255 -1.0399
    2PMMA  HC59  507   2.887   2.708   3.268  0.5750  0.2656 -0.3834
    2PMMA  H160  508   3.294   2.744   3.289  1.3895 -0.0661  0.1887
    2PMMA  H161  509   3.311   2.794   3.454  1.0743 -2.0336 -1.1074
    2PMMA  H162  510   3.252   2.913   3.324 -0.0641 -0.4369 -0.2721
    2PMMA  HC63  511   2.885   2.765   3.641  0.2477 -1.0228  2.1093
    2PMMA  HC64  512   2.767   2.636   3.607 -0.0869 -0.0166 -3.2051
    2PMMA  HC65  513   2.911   2.597   3.689  0.7350  0.7934  0.2846
    3HFI     O1  514   2.539   1.785   0.104 -0.6254 -0.3618 -0.4377
    3HFI     C1  515   2.632   1.842   0.011 -1.1990  0.2606 -0.7045
    3HFI     C2  516   2.765   1.755   0.007 -1.0564 -0.5880 -0.1149
    3HFI     F1  517   2.750   1.623   0.032  0.0238 -0.1596 -0.2657
    3HFI     F2  518   2.854   1.800   0.104  0.2709  0.1562  0.0473
    3HFI     F3  519   2.828   1.766  -0.114  0.3754 -0.1883  0.5479
    3HFI     C3  520   2.666   1.991   0.039 -0.1174 -0.1712 -0.2600
    3HFI     F4  521   2.769   2.037  -0.040 -1.0484  0.4601 -0.1048
    3HFI     F5  522   2.694   2.017   0.169 -0.2241 -0.2325 -0.0191
    3HFI     F6  523   2.560   2.065   0.005  0.2240 -0.0188 -0.4696
    3HFI     H1  524   2.514   1.856   0.166  0.5584 -0.8885  0.6770
    3HFI     H2  525   2.602   1.835  -0.095  2.5099 -3.5667 -1.6658
    4HFI     O1  526   2.536   0.997   3.038 -0.1220  0.1790 -0.2057
    4HFI     C1  527   2.665   0.975   2.973 -0.0000  0.3841 -0.7108
    4HFI     C2  528   2.720   1.111   2.923  0.5459  0.0751  0.6672
    4HFI     F1  529   2.852   1.118   2.911 -0.6309  0.2600  0.3994
    4HFI     F2  530   2.691   1.219   3.004 -0.4017  0.3203 -0.1307
    4HFI     F3  531   2.665   1.143   2.807 -0.8759  0.1657  0.2826
    4HFI     C3  532   2.643   0.863   2.865  0.0635 -0.0436 -0.6002
    4HFI     F4  533   2.755   0.837   2.793 -0.2214  0.1463 -0.2241
    4HFI     F5  534   2.554   0.901   2.783  0.4294  0.6668 -0.0693
    4HFI     F6  535   2.597   0.745   2.923  0.1401 -0.0923  0.0656
    4HFI     H1  536   2.468   1.020   2.972  1.9591 -0.7811 -2.7665
    4HFI     H2  537   2.738   0.928   3.039  0.0402  1.1142 -0.2292
    5HFI     O1  538   0.879   1.488   0.601  0.2515  0.3415 -0.3912
    5HFI     C1  539   0.936   1.556   0.715  0.5132 -0.3935  0.6550
    5HFI     C2  540   0.825   1.631   0.804  0.2183  0.1738  0.2293
    5HFI     F1  541   0.866   1.657   0.931 -0.1011 -0.6213 -0.3795
    5HFI     F2  542   0.713   1.553   0.805  0.2285 -0.4007 -0.3732
    5HFI     F3  543   0.783   1.746   0.747  0.0037  0.2993  0.4004
    5HFI     C3  544   1.063   1.649   0.688  0.2564  0.3699 -0.5440
    5HFI     F4  545   1.037   1.773   0.638 -0.1019 -0.5029  0.2091
    5HFI     F5  546   1.142   1.585   0.591 -0.0029 -0.0870 -0.0976
    5HFI     F6  547   1.140   1.658   0.795  0.4925  0.4819  0.3868
    5HFI     H1  548   0.832   1.560   0.556 -0.6653 -0.4408 -0.7224
    5HFI     H2  549   0.976   1.485   0.789  0.6914 -0.5523  0.4077
    6HFI     O1  550   0.046   3.431   1.298 -0.5597  0.4899  0.3216
    6HFI     C1  551  -0.048   3.468   1.396 -0.0116  0.3277 -0.0781
    6HFI     C2  552   0.011   3.571   1.499 -0.3367  0.1966  0.3907
    6HFI     F1  553   0.141   3.533   1.541  0.0218 -0.9952  0.4784
    6HFI     F2  554  -0.069   3.584   1.608 -0.0177 -0.1507 -0.8210
    6HFI     F3  555   0.026   3.692   1.448  0.2277  0.1735  0.2043
    6HFI     C3  556  -0.102   3.339   1.477  0.4981 -0.4410  0.1572
    6HFI     F4  557  -0.151   3.253   1.388 -0.4621  0.2747 -0.1383
    6HFI     F5  558  -0.207   3.362   1.555 -0.3943 -0.0050  0.2550
    6HFI     F6  559  -0.002   3.277   1.544 -0.7013  0.2613  0.6142
    6HFI     H1  560   0.130   3.407   1.341  1.0989  2.6897 -1.5893
    6HFI     H2  561  -0.134   3.510   1.342  0.0106  1.0491  0.4407
    7HFI     O1  562   1.924   1.642   1.076 -0.3254  0.3055  0.2578
    7HFI     C1  563   1.959   1.762   1.000  0.0258 -0.3736 -0.1278
    7HFI     C2  564   2.103   1.742   0.936 -0.3758  0.4275  0.1073
    7HFI     F1  565   2.198   1.759   1.037 -0.2512 -0.1559  0.4110
    7HFI     F2  566   2.119   1.830   0.843  0.1362  0.1283 -0.1366
    7HFI     F3  567   2.123   1.622   0.885 -0.2945 -0.3995  0.5812
    7HFI     C3  568   1.940   1.883   1.092 -0.6152 -0.7988  0.2671
    7HFI     F4  569   2.032   1.875   1.188  0.4572 -0.4377  0.4341
    7HFI     F5  570   1.818   1.891   1.141  0.2572  0.3726  0.2034
    7HFI     F6  571   1.968   1.999   1.022  0.3977 -0.9408  0.5272
    7HFI     H1  572   1.983   1.638   1.153  0.2575 -1.3761 -0.2576
    7HFI     H2  573   1.884   1.771   0.921  2.0485 -0.5558 -2.1347
    8HFI     O1  574   1.074   0.180   1.295  0.4244 -0.1373 -0.3436
    8HFI     C1  575   1.075   0.087   1.407  0.3490 -0.2888  0.5292
    8HFI     C2  576   0.931   0.060   1.465 -0.4573 -0.5233  0.1138
    8HFI     F1  577   0.862   0.175   1.506 -0.6279  0.0576 -0.1649
    8HFI     F2  578   0.939  -0.019   1.578  0.3023 -0.0868 -1.2866
    8HFI     F3  579   0.862  -0.002   1.372 -0.1389  0.0061 -0.2882
    8HFI     C3  580   1.174   0.145   1.514  1.1330  0.1663 -0.4277
    8HFI     F4  581   1.225   0.045   1.589  0.1643  0.0729  0.9289
    8HFI     F5  582   1.121   0.236   1.595 -0.2044 -0.1962 -0.0935
    8HFI     F6  583   1.281   0.200   1.451  0.1611  0.4876  0.0961
    8HFI     H1  584   1.166   0.183   1.264 -0.4130  0.7002 -2.9114
    8HFI     H2  585   1.113  -0.010   1.373  0.2236  0.6307 -2.3782
    9HFI     O1  586   1.998   0.342   1.337 -0.7906  0.5310 -0.1678
    9HFI     C1  587   2.115   0.327   1.426 -0.5441  0.5382  0.1993
    9HFI     C2  588   2.119   0.198   1.511  0.1809 -0.1293  0.2999
    9HFI     F1  589   2.101   0.084   1.436 -0.7491  0.0615 -0.5571
    9HFI     F2  590   2.021   0.203   1.602 -0.2198 -0.2285 -0.3514
    9HFI     F3  591   2.235   0.182   1.578  0.1487 -0.1631  0.0146
    9HFI     C3  592   2.136   0.454   1.520  0.0306 -0.0752  0.0151
    9HFI     F4  593   2.032   0.477   1.599  0.2466  0.4932 -0.5038
    9HFI     F5  594   2.148   0.567   1.442  0.0520  0.0007  0.0742
    9HFI     F6  595   2.252   0.452   1.596  0.2900  0.3605 -0.0408
    9HFI     H1  596   1.923   0.297   1.379  0.9547 -0.9077  1.4805
    9HFI     H2  597   2.206   0.323   1.365 -0.8907 -0.2613 -0.2770
   10HFI     O1  598   0.921   0.259   1.060  0.0779  0.3069  0.8418
   10HFI     C1  599   0.791   0.272   0.994  0.4162  0.6267 -0.3495
   10HFI     C2  600   0.793   0.378   0.879 -0.2257  1.0067  0.3471
   10HFI     F1  601   0.883   0.360   0.782  0.3546 -0.5048  0.0628
   10HFI     F2  602   0.812   0.498   0.933  0.4203 -0.4473  0.0312
   10HFI     F3  603   0.669   0.379   0.816 -0.2165  0.4178  0.5323
   10HFI     C3  604   0.676   0.280   1.103 -0.0000 -0.4011  0.0056
   10HFI     F4  605   0.699   0.184   1.199 -0.0803  0.1638  0.7785
   10HFI     F5  606   0.554   0.273   1.038 -0.2819  0.4404  0.2292
   10HFI     F6  607   0.681   0.400   1.159  0.3845 -0.3480  0.5496
   10HFI     H1  608   0.913   0.241   1.155 -0.9306  0.7690  0.8563
   10HFI     H2  609   0.778   0.183   0.932 -1.6042  0.9785 -0.4556
   11HFI     O1  610   1.513   1.171   2.483  0.0791  0.2035 -0.4499
   11HFI     C1  611   1.461   1.038   2.443  0.0074 -0.2050 -0.4117
   11HFI     C2  612   1.554   0.929   2.506  0.0763 -0.4843 -0.0702
   11HFI     F1  613   1.487   0.818   2.528  0.2471 -0.7693  0.0166
   11HFI     F2  614   1.606   0.971   2.630  0.2140 -0.0672  0.0275
   11HFI     F3  615   1.658   0.882   2.430 -0.1408 -0.7214 -0.1873
   11HFI     C3  616   1.451   1.034   2.290 -0.0261  0.0523  0.2326
   11HFI     F4  617   1.411   0.912   2.240 -0.1109  0.0204 -0.0303
   11HFI     F5  618   1.573   1.059   2.230 -0.9681 -0.0812 -0.0187
   11HFI     F6  619   1.363   1.129   2.246 -0.7701  0.0987  0.2149
   11HFI     H1  620   1.508   1.182   2.579  1.9772 -0.5439 -0.2388
   11HFI     H2  621   1.360   1.024   2.482  0.4006 -1.3679  0.2104
   12HFI     O1  622   2.916   2.367   2.803 -0.0610 -0.1471  0.3522
   12HFI     C1  623   3.054   2.391   2.758  0.5336 -0.6226 -0.4080
   12HFI     C2  624   3.152   2.272   2.798  0.0534  0.0872  0.7929
   12HFI     F1  625   3.095   2.155   2.766 -0.1229  0.2789  0.2383
   12HFI     F2  626   3.176   2.275   2.933 -0.9295  0.4728 -0.1632
   12HFI     F3  627   3.269   2.278   2.740 -0.4470 -0.2623 -0.2245
   12HFI     C3  628   3.100   2.537   2.794  0.1718 -1.1531 -0.3043
   12HFI     F4  629   3.100   2.565   2.928 -0.2075  0.5528 -0.2242
   12HFI     F5  630   3.026   2.633   2.742 -0.4437  0.2075  0.2807
   12HFI     F6  631   3.225   2.566   2.750 -0.5279 -0.0343 -0.1187
   12HFI     H1  632   2.910   2.401   2.894  0.1431 -0.1357  0.3616
   12HFI     H2  633   3.043   2.387   2.649  0.6064  1.8086 -0.5278
   13HFI     O1  634   2.606   1.809   1.521  0.3922 -0.4518 -0.1157
   13HFI     C1  635   2.487   1.827   1.439 -0.5366 -0.4702 -0.7147
   13HFI     C2  636   2.416   1.956   1.476 -0.5752  0.2166 -0.6795
   13HFI     F1  637   2.307   1.979   1.405 -0.4015  0.2210 -0.5435
   13HFI     F2  638   2.499   2.061   1.458  0.2412 -0.1612 -0.0530
   13HFI     F3  639   2.381   1.964   1.608  0.3171 -0.1211 -0.0193
   13HFI     C3  640   2.403   1.699   1.441  0.4951 -0.3611 -0.6868
   13HFI     F4  641   2.302   1.706   1.357 -0.0209  0.7383 -0.2214
   13HFI     F5  642   2.347   1.681   1.563 -0.0914  0.3390 -0.1206
   13HFI     F6  643   2.471   1.584   1.408 -0.4468 -0.4630  0.0777
   13HFI     H1  644   2.580   1.798   1.614  0.5158 -0.9281 -0.1326
   13HFI     H2  645   2.511   1.840   1.332  2.0480 -0.8155 -0.2084
   14HFI     O1  646   2.376   1.067   0.770 -0.1738 -0.2635  0.0965
   14HFI     C1  647   2.332   0.950   0.689  0.8466  0.0083  0.2174
   14HFI     C2  648   2.243   0.984   0.561  0.3858  0.4265  0.2958
   14HFI     F1  649   2.106   0.988   0.591 -0.6336  0.0583  0.4369
   14HFI     F2  650   2.265   0.894   0.469  0.5824 -0.5425  0.1870
   14HFI     F3  651   2.277   1.101   0.507 -0.3000 -0.2383  0.9359
   14HFI     C3  652   2.269   0.846   0.783 -0.1884 -0.0980  0.3972
   14HFI     F4  653   2.215   0.742   0.715 -0.7623  0.0461 -0.0097
   14HFI     F5  654   2.171   0.905   0.857 -0.0818 -0.5407  0.2794
   14HFI     F6  655   2.359   0.802   0.874 -0.2341 -0.1557 -0.0530
   14HFI     H1  656   2.303   1.131   0.780  0.1920 -0.1408  2.1583
   14HFI     H2  657   2.420   0.901   0.646  0.2813  0.7780 -1.9088
   15HFI     O1  658   1.163   1.367   1.315  0.2976 -0.7542 -0.2084
   15HFI     C1  659   1.123   1.498   1.361 -0.1711  0.5055  1.0755
   15HFI     C2  660   1.183   1.605   1.265  0.3074  0.2277 -0.0328
   15HFI     F1  661   1.130   1.726   1.294  0.1191  0.0775 -0.0382
   15HFI     F2  662   1.157   1.584   1.136 -0.0023 -0.2346 -0.2308
   15HFI     F3  663   1.321   1.620   1.284 -0.2518 -0.1291 -0.0752
   15HFI     C3  664   1.151   1.521   1.514 -0.0587  0.3905  0.2646
   15HFI     F4  665   1.108   1.419   1.581 -0.0425 -0.0254 -0.0594
   15HFI     F5  666   1.093   1.636   1.562 -0.0322  0.4056  0.1004
   15HFI     F6  667   1.286   1.532   1.541 -0.2257  0.3908  0.0156
   15HFI     H1  668   1.222   1.340   1.387 -3.6664 -2.6764  2.4865
   15HFI     H2  669   1.015   1.505   1.343  0.0359 -2.1221 -1.3912
   16HFI     O1  670   2.881   2.879   2.418  0.3262 -0.0452 -0.1969
   16HFI     C1  671   3.012   2.822   2.436  0.4579  0.0867  0.6121
   16HFI     C2  672   3.098   2.909   2.536 -0.2672 -0.8586  0.3767
   16HFI     F1  673   3.109   3.039   2.491 -0.4897 -0.2056  0.2498
   16HFI     F2  674   3.224   2.861   2.560 -0.5992  0.3259  0.2586
   16HFI     F3  675   3.036   2.921   2.655 -0.5282 -0.6472 -0.0717
   16HFI     C3  676   3.082   2.814   2.298 -0.8055 -0.3722  0.6374
   16HFI     F4  677   3.090   2.943   2.237  0.1917 -0.0230 -0.3339
   16HFI     F5  678   3.007   2.740   2.220 -0.0377  0.2588 -0.1582
   16HFI     F6  679   3.204   2.767   2.301 -0.5061  0.3492 -0.1021
   16HFI     H1  680   2.898   2.965   2.376  1.7404 -1.4151 -2.5455
   16HFI     H2  681   2.993   2.721   2.474 -3.1915  1.0083  1.3665
   17HFI     O1  682   3.302   2.406   3.587  0.0435 -0.2647  0.1554
   17HFI     C1  683   3.304   2.398   3.736  0.5025  0.2504 -0.4806
   17HFI     C2  684   3.166   2.396   3.807  0.6329 -0.1441  0.3762
   17HFI     F1  685   3.069   2.320   3.744  0.6086 -0.6912 -0.4431
   17HFI     F2  686   3.117   2.520   3.816 -0.1150 -0.0075  0.2705
   17HFI     F3  687   3.179   2.334   3.927  0.3819  0.5507  0.7888
   17HFI     C3  688   3.405   2.500   3.794  0.1578  0.0468  0.0330
   17HFI     F4  689   3.382   2.623   3.751 -0.2258  0.0605 -0.0548
   17HFI     F5  690   3.531   2.469   3.759  0.0168  0.1235  0.0095
   17HFI     F6  691   3.400   2.504   3.924  0.0416  0.4627  0.0795
   17HFI     H1  692   3.269   2.496   3.572  3.4010  1.1388  0.5985
   17HFI     H2  693   3.336   2.295   3.760 -0.5695  0.5587  2.4981
   18HFI     O1  694   2.193   3.177   0.776  0.5403  0.1556 -0.3910
   18HFI     C1  695   2.158   3.212   0.639  0.1428 -0.1651 -0.2719
   18HFI     C2  696   2.039   3.137   0.562  0.3861  1.1090  0.1705
   18HFI     F1  697   1.961   3.076   0.658  0.7516 -0.1886 -0.5505
   18HFI     F2  698   2.088   3.044   0.475 -0.2007 -0.0961 -0.4868
   18HFI     F3  699   1.957   3.221   0.489 -0.0723 -0.2952  0.0309
   18HFI     C3  700   2.281   3.214   0.549  0.1521 -0.3330 -0.5819
   18HFI     F4  701   2.369   3.303   0.602 -0.1556 -0.2046 -0.4321
   18HFI     F5  702   2.255   3.239   0.419  0.0258  0.4017  0.6181
   18HFI     F6  703   2.349   3.097   0.559  0.0289 -1.2631  0.3809
   18HFI     H1  704   2.249   3.098   0.783  0.5749 -0.0440 -2.6815
   18HFI     H2  705   2.113   3.312   0.649  0.4671  0.0228 -0.6918
   19HFI     O1  706   0.374   0.097   2.272  0.0633 -0.5368 -0.2208
   19HFI     C1  707   0.440   0.235   2.278 -0.2689  0.1629 -0.0938
   19HFI     C2  708   0.530   0.240   2.407  0.8817 -0.2631  0.0930
   19HFI     F1  709   0.454   0.240   2.526 -0.3443  0.1706 -0.5511
   19HFI     F2  710   0.603   0.353   2.400 -0.3044 -0.1887 -0.5130
   19HFI     F3  711   0.604   0.137   2.414  0.0164  0.1041  0.2006
   19HFI     C3  712   0.336   0.343   2.274  0.5520  0.4407  0.4134
   19HFI     F4  713   0.390   0.461   2.251 -0.1408 -0.0850 -0.5571
   19HFI     F5  714   0.272   0.362   2.390 -0.2702  0.0400 -0.1090
   19HFI     F6  715   0.240   0.318   2.188  0.2535  0.1129 -0.0947
   19HFI     H1  716   0.340   0.076   2.361  0.7466 -0.5154  0.0509
   19HFI     H2  717   0.514   0.255   2.199  0.1620 -1.3144 -0.0855
   20HFI     O1  718   1.755   0.602   1.496 -0.2279  0.5536 -0.4480
   20HFI     C1  719   1.641   0.531   1.546 -0.4829  0.0517 -0.5426
   20HFI     C2  720   1.618   0.383   1.491 -1.0298 -0.3640  0.1496
   20HFI     F1  721   1.736   0.319   1.486 -0.1445 -0.0471 -0.1632
   20HFI     F2  722   1.564   0.383   1.371 -0.1557 -0.7940 -0.2528
   20HFI     F3  723   1.542   0.307   1.574 -0.3201 -0.2563  0.5771
   20HFI     C3  724   1.510   0.623   1.529  0.2140 -0.6281  0.4654
   20HFI     F4  725   1.467   0.626   1.398 -0.2287 -0.4006  0.1700
   20HFI     F5  726   1.524   0.748   1.567  0.1607 -0.1787  0.1942
   20HFI     F6  727   1.410   0.579   1.611  0.2362  0.2503 -0.1779
   20HFI     H1  728   1.758   0.594   1.399 -0.5100  0.8574 -0.4810
   20HFI     H2  729   1.647   0.515   1.655  1.5363  0.3198 -0.6079
   21HFI     O1  730   1.073   1.958   0.204  0.2354 -0.4339 -0.4208
   21HFI     C1  731   1.035   1.822   0.256  0.6086  0.4761  0.3975
   21HFI     C2  732   1.049   1.708   0.155 -0.5353  0.1531  0.3458
   21HFI     F1  733   0.987   1.592   0.196  0.3286 -0.3449 -0.4519
   21HFI     F2  734   1.183   1.673   0.140  0.2452 -0.2518 -1.0123
   21HFI     F3  735   1.012   1.751   0.038 -0.5747  0.0786  0.6363
   21HFI     C3  736   0.890   1.817   0.306 -0.2947 -0.1590  0.1705
   21HFI     F4  737   0.807   1.792   0.194 -0.0190  0.3536 -0.5985
   21HFI     F5  738   0.847   1.930   0.372 -0.9164 -0.0895  0.4073
   21HFI     F6  739   0.871   1.713   0.391 -0.1470  0.2982  0.1768
   21HFI     H1  740   1.021   1.979   0.125  0.6855  1.4319 -0.2409
   21HFI     H2  741   1.099   1.800   0.342  0.3165  0.2501  0.5593
   22HFI     O1  742   3.300   2.940   1.526  0.1245 -0.2449 -0.1463
   22HFI     C1  743   3.357   2.806   1.522  0.2303  0.4143  0.8522
   22HFI     C2  744   3.487   2.811   1.440 -0.5718 -0.5820 -0.1610
   22HFI     F1  745   3.469   2.880   1.326 -0.2819  0.0032  0.3433
   22HFI     F2  746   3.528   2.685   1.407 -0.1743 -0.3928  0.1168
   22HFI     F3  747   3.586   2.865   1.506 -0.1733 -0.6907 -0.1163
   22HFI     C3  748   3.251   2.700   1.484  0.0256 -0.1553 -0.1652
   22HFI     F4  749   3.147   2.713   1.568 -0.7079 -0.3964  0.1358
   22HFI     F5  750   3.297   2.579   1.510 -0.6877  0.1584  0.3418
   22HFI     F6  751   3.207   2.706   1.353  0.0689  0.4619  0.3092
   22HFI     H1  752   3.304   2.979   1.438 -0.3506  0.9936  0.3766
   22HFI     H2  753   3.384   2.780   1.625  0.4494  1.0882  0.9643
   23HFI     O1  754   2.541   2.292   3.626  0.6050  0.5236 -0.1699
   23HFI     C1  755   2.526   2.411   3.706  0.3790 -0.2936  0.3210
   23HFI     C2  756   2.624   2.403   3.839 -0.2986  0.0655  0.1591
   23HFI     F1  757   2.750   2.359   3.798  0.3666 -0.1752  0.0587
   23HFI     F2  758   2.583   2.315   3.928  0.8874 -0.0425 -0.2719
   23HFI     F3  759   2.650   2.521   3.890 -0.3047  0.0725  0.4428
   23HFI     C3  760   2.382   2.431   3.749 -0.2828 -0.5160  0.4813
   23HFI     F4  761   2.311   2.481   3.648  0.6295 -0.1862  0.0916
   23HFI     F5  762   2.368   2.529   3.845 -0.0913  0.0904 -0.0163
   23HFI     F6  763   2.326   2.316   3.790  0.1530  0.3713 -0.0179
   23HFI     H1  764   2.495   2.214   3.660 -1.1975  0.8634 -1.6999
   23HFI     H2  765   2.553   2.492   3.637 -1.8641 -0.3924 -0.7215
   24HFI     O1  766   0.520   2.471   1.359  0.2358 -0.4033 -0.4243
   24HFI     C1  767   0.528   2.618   1.378 -0.8796  0.2593  0.4310
   24HFI     C2  768   0.614   2.687   1.265  0.5457 -0.2131  0.1751
   24HFI     F1  769   0.658   2.811   1.305 -0.3711 -0.4439  0.0224
   24HFI     F2  770   0.548   2.695   1.147  0.3070  0.3129  0.2311
   24HFI     F3  771   0.725   2.615   1.247  0.3424 -0.1773 -0.3529
   24HFI     C3  772   0.577   2.651   1.527 -0.6131 -0.8958  0.2844
   24HFI     F4  773   0.496   2.598   1.621 -0.8597 -0.0623  0.0329
   24HFI     F5  774   0.587   2.782   1.545 -0.2881 -0.5809  0.3743
   24HFI     F6  775   0.701   2.597   1.547  0.1311  0.0098 -0.0519
   24HFI     H1  776   0.477   2.457   1.273 -1.0837  1.6470 -0.1536
   24HFI     H2  777   0.426   2.655   1.361 -0.7216  0.3812 -0.2651
   25HFI     O1  778   1.664   2.671   2.594 -0.3961 -1.2051 -0.2505
   25HFI     C1  779   1.621   2.600   2.481 -0.4358 -0.1609  0.3976
   25HFI     C2  780   1.730   2.503   2.435  0.0756  0.0489 -0.6526
   25HFI     F1  781   1.846   2.563   2.386  0.1667  0.4397 -0.5588
   25HFI     F2  782   1.682   2.423   2.336 -0.1018 -0.0738  0.1856
   25HFI     F3  783   1.757   2.421   2.540 -0.1472 -0.1649  0.1196
   25HFI     C3  784   1.582   2.695   2.357  0.3524  0.4196  0.5871
   25HFI     F4  785   1.503   2.793   2.396 -0.1455  0.9588  0.0359
   25HFI     F5  786   1.516   2.631   2.259 -0.5386  0.0912 -0.2229
   25HFI     F6  787   1.686   2.760   2.295  0.5527 -0.2471  0.9459
   25HFI     H1  788   1.629   2.761   2.587  0.9881 -0.6258  0.3212
   25HFI     H2  789   1.539   2.531   2.503 -0.3885 -0.0226  1.0199
   26HFI     O1  790   0.557   2.540   0.637  0.4592 -0.8902  0.4241
   26HFI     C1  791   0.690   2.505   0.671  0.2615 -0.5848  0.4142
   26HFI     C2  792   0.728   2.585   0.800  0.4837 -0.2957  0.3237
   26HFI     F1  793   0.740   2.718   0.777  0.3316  0.3255  0.4435
   26HFI     F2  794   0.837   2.541   0.866 -0.2404 -0.2612  0.4523
   26HFI     F3  795   0.622   2.564   0.888  0.2715 -0.2062 -0.6259
   26HFI     C3  796   0.784   2.518   0.552 -0.3066 -0.3017 -0.1678
   26HFI     F4  797   0.907   2.478   0.588  0.1997  0.1124  0.5367
   26HFI     F5  798   0.789   2.643   0.501 -0.1438  0.1086 -0.7324
   26HFI     F6  799   0.741   2.434   0.454 -0.0710 -0.8726 -0.6840
   26HFI     H1  800   0.509   2.576   0.713 -1.5962  0.8391 -1.6219
   26HFI     H2  801   0.693   2.401   0.708  1.2813 -1.2892 -1.5643
   27HFI     O1  802   0.104   2.553   3.329  0.2180 -0.0040  0.1708
   27HFI     C1  803   0.200   2.485   3.412  0.1790 -0.5527 -0.5737
   27HFI     C2  804   0.283   2.586   3.486  0.2666  0.2226 -0.2812
   27HFI     F1  805   0.357   2.538   3.590 -0.5907  0.3425  0.1226
   27HFI     F2  806   0.211   2.679   3.539 -0.2349 -0.1412 -0.5972
   27HFI     F3  807   0.371   2.651   3.406 -0.2010 -0.1146  0.2069
   27HFI     C3  808   0.278   2.378   3.339 -0.8281  0.6130  0.4108
   27HFI     F4  809   0.195   2.303   3.270 -0.0938  0.3746  0.0200
   27HFI     F5  810   0.342   2.296   3.431 -0.0842  0.2803 -0.2951
   27HFI     F6  811   0.369   2.432   3.257  0.1840  0.3933  0.1142
   27HFI     H1  812   0.126   2.562   3.235  0.0537  3.1813  0.3686
   27HFI     H2  813   0.151   2.426   3.490  1.6024 -1.9184 -0.6894
   28HFI     O1  814   3.389   2.670   1.106 -0.2341  0.0270  0.0992
   28HFI     C1  815   3.478   2.607   1.006  0.3602 -0.0918  0.3766
   28HFI     C2  816   3.447   2.455   0.985  0.0673 -0.5614  0.3418
   28HFI     F1  817   3.531   2.393   0.904  0.3345 -0.3943  0.3459
   28HFI     F2  818   3.322   2.448   0.925 -0.2036 -0.3161  0.4004
   28HFI     F3  819   3.435   2.390   1.107  0.0231  0.5208  0.7182
   28HFI     C3  820   3.630   2.635   1.037 -0.6171  0.0855  0.4865
   28HFI     F4  821   3.705   2.652   0.928  0.1804  0.0755 -0.8422
   28HFI     F5  822   3.682   2.537   1.111 -0.1380  0.3518  0.1375
   28HFI     F6  823   3.641   2.748   1.108  0.3263  0.1833  0.3728
   28HFI     H1  824   3.300   2.633   1.098 -0.4866  0.9003 -1.3824
   28HFI     H2  825   3.450   2.663   0.916 -2.1635 -1.1765  0.4524
   29HFI     O1  826   2.195   3.043   1.279  0.4412 -0.4772 -0.6136
   29HFI     C1  827   2.075   3.020   1.364  0.4813 -0.2020  0.1816
   29HFI     C2  828   2.076   3.103   1.494  0.0681  0.2433  0.6493
   29HFI     F1  829   1.965   3.082   1.572  0.2229  0.1552  0.2288
   29HFI     F2  830   2.083   3.237   1.467 -0.1093  0.0858  0.1733
   29HFI     F3  831   2.183   3.070   1.575  0.3406 -0.3266  0.6168
   29HFI     C3  832   2.051   2.868   1.395 -0.2864  0.7610 -0.5178
   29HFI     F4  833   2.083   2.796   1.283 -0.1589 -0.0798 -0.2088
   29HFI     F5  834   1.925   2.838   1.427 -0.0864  0.0911  0.0618
   29HFI     F6  835   2.123   2.814   1.500 -0.5575 -0.1891  0.2222
   29HFI     H1  836   2.271   3.037   1.339  1.0298  2.7440 -0.9565
   29HFI     H2  837   1.980   3.048   1.316 -0.5099 -1.5758  1.2968
   30HFI     O1  838   1.592   1.706   1.092  0.0634  0.3691  0.3194
   30HFI     C1  839   1.500   1.699   0.971 -0.7121  0.9110  0.0358
   30HFI     C2  840   1.503   1.553   0.911 -0.3192  0.1011  0.0187
   30HFI     F1  841   1.407   1.539   0.811 -0.0799  0.8139 -0.3604
   30HFI     F2  842   1.474   1.452   1.005  0.3288 -0.5588  0.2553
   30HFI     F3  843   1.623   1.530   0.852 -0.1306  0.5574 -0.1530
   30HFI     C3  844   1.525   1.810   0.865  0.3551  0.4129  0.0525
   30HFI     F4  845   1.526   1.930   0.921  0.0799 -0.5537 -0.1475
   30HFI     F5  846   1.428   1.815   0.771  0.1233 -0.3464  0.3459
   30HFI     F6  847   1.649   1.794   0.812  0.0791 -0.4350 -0.5607
   30HFI     H1  848   1.637   1.792   1.087 -0.7793  0.7159 -1.7535
   30HFI     H2  849   1.402   1.718   1.016 -0.6491 -1.2959  1.1443
   31HFI     O1  850   2.078   1.456   3.095 -0.3729  0.2793  0.3009
   31HFI     C1  851   2.206   1.443   3.163  0.0142  0.4041  0.1537
   31HFI     C2  852   2.312   1.547   3.122  0.2755 -0.1867  0.1679
   31HFI     F1  853   2.430   1.542   3.186 -0.3396 -0.1943  0.2882
   31HFI     F2  854   2.258   1.667   3.142 -0.0226  0.2607 -0.2308
   31HFI     F3  855   2.331   1.534   2.993  0.3307 -0.8287  0.2314
   31HFI     C3  856   2.267   1.300   3.154  0.0150 -0.3768  0.3503
   31HFI     F4  857   2.168   1.211   3.178 -0.5167 -0.2511 -0.2009
   31HFI     F5  858   2.365   1.279   3.244  0.0480 -0.2949 -0.2832
   31HFI     F6  859   2.309   1.276   3.034  0.5739 -0.1095 -0.2015
   31HFI     H1  860   2.008   1.416   3.151 -0.5205 -0.4925 -0.4187
   31HFI     H2  861   2.200   1.469   3.269 -0.5450  0.1081  0.1969
   32HFI     O1  862   1.850   0.616   3.402 -0.4036  0.0187 -0.3082
   32HFI     C1  863   1.906   0.745   3.364  0.3447  0.0197 -0.1468
   32HFI     C2  864   1.797   0.834   3.301  0.0818 -0.5562  0.4006
   32HFI     F1  865   1.710   0.868   3.399 -0.1119 -0.3499  0.0844
   32HFI     F2  866   1.714   0.775   3.203  0.1768 -0.4034 -0.0654
   32HFI     F3  867   1.845   0.947   3.249  0.3356  0.2269 -0.1851
   32HFI     C3  868   2.022   0.733   3.264  0.1114  1.0394 -0.3227
   32HFI     F4  869   2.101   0.844   3.255 -0.3323 -0.2861 -0.3249
   32HFI     F5  870   1.984   0.698   3.143 -0.0920 -0.0821  0.1158
   32HFI     F6  871   2.106   0.626   3.300 -0.7939  0.7512  0.0214
   32HFI     H1  872   1.783   0.592   3.336  0.1205  1.8755 -1.5270
   32HFI     H2  873   1.943   0.805   3.448  1.3670 -1.2397  0.3248
   33HFI     O1  874   1.235   0.462   3.434 -0.4755  0.2716  0.2615
   33HFI     C1  875   1.367   0.434   3.384 -0.0148  0.4651 -0.1519
   33HFI     C2  876   1.468   0.553   3.395  0.6609 -0.0249 -0.2499
   33HFI     F1  877   1.429   0.647   3.297  0.3042  0.1635 -0.8056
   33HFI     F2  878   1.594   0.521   3.359 -0.1504  0.2849  0.2827
   33HFI     F3  879   1.463   0.605   3.524 -0.2113 -0.0519 -0.0227
   33HFI     C3  880   1.361   0.372   3.236 -0.5279 -0.0464  0.0014
   33HFI     F4  881   1.481   0.329   3.206 -0.2127  0.2781 -0.2000
   33HFI     F5  882   1.317   0.453   3.132 -0.0052 -0.0272 -0.0464
   33HFI     F6  883   1.283   0.262   3.247  0.7002  0.1423 -0.1490
   33HFI     H1  884   1.183   0.382   3.413  0.0577 -0.2628  0.9258
   33HFI     H2  885   1.403   0.360   3.457  1.5996  2.1655  0.8374
   34HFI     O1  886   1.684   3.138   0.091  0.1985  0.2128  0.4425
   34HFI     C1  887   1.570   3.123   0.179 -0.2402 -0.5718 -0.3762
   34HFI     C2  888   1.456   3.027   0.120  0.1424  0.0001  0.1308
   34HFI     F1  889   1.372   2.997   0.220 -0.0552 -0.4559  0.5187
   34HFI     F2  890   1.520   2.919   0.069  0.2186  0.1839  0.1564
   34HFI     F3  891   1.387   3.088   0.017  0.2300 -0.4414  0.8335
   34HFI     C3  892   1.508   3.258   0.229  0.6298 -0.0717  0.5950
   34HFI     F4  893   1.443   3.321   0.131 -0.1673 -0.3265 -0.2520
   34HFI     F5  894   1.619   3.338   0.260 -0.1459  0.0815  0.0089
   34HFI     F6  895   1.439   3.261   0.340 -0.0818 -0.4522  0.0348
   34HFI     H1  896   1.710   3.231   0.078 -0.1846 -0.0381 -2.5004
   34HFI     H2  897   1.592   3.073   0.275  1.5044  1.2642  0.2073
   35HFI     O1  898   0.453   2.803   0.755 -0.2950  0.2031 -0.1792
   35HFI     C1  899   0.410   2.883   0.636  0.2123  0.7271  0.3068
   35HFI     C2  900   0.478   3.018   0.644  0.0558 -0.5050 -0.7168
   35HFI     F1  901   0.408   3.109   0.577  0.1598 -0.6617 -0.0307
   35HFI     F2  902   0.603   3.005   0.602  0.0339  0.0167 -0.1237
   35HFI     F3  903   0.481   3.047   0.778  0.0173  0.1520 -0.1162
   35HFI     C3  904   0.256   2.877   0.621  0.0774 -0.1370  0.0387
   35HFI     F4  905   0.201   2.955   0.713 -0.2486 -0.0795  0.1273
   35HFI     F5  906   0.203   2.755   0.646  0.0452 -0.7786  0.4276
   35HFI     F6  907   0.203   2.913   0.498 -0.0087  0.5887 -0.3751
   35HFI     H1  908   0.445   2.863   0.831 -1.7153  1.5821 -1.3697
   35HFI     H2  909   0.444   2.841   0.541 -2.6346  1.7434 -1.2348
   36HFI     O1  910   0.431   0.004   0.298 -0.5971 -0.7142 -0.1287
   36HFI     C1  911   0.285   0.008   0.308 -1.1227 -0.2182 -0.0593
   36HFI     C2  912   0.234   0.111   0.414 -0.5659  0.4179 -0.6715
   36HFI     F1  913   0.322   0.213   0.427  0.5491  0.4036  0.3565
   36HFI     F2  914   0.226   0.060   0.539  0.7425 -0.2783 -0.2645
   36HFI     F3  915   0.112   0.163   0.389  0.0502  0.0532  0.1192
   36HFI     C3  916   0.217  -0.128   0.314  0.2207  0.6290  0.2842
   36HFI     F4  917   0.256  -0.218   0.225 -0.0301  0.0995  0.0866
   36HFI     F5  918   0.086  -0.106   0.295  0.2834 -0.0716  0.1381
   36HFI     F6  919   0.238  -0.194   0.433  0.1696 -0.3630 -0.1854
   36HFI     H1  920   0.457   0.093   0.326  0.0744 -0.6549 -0.9173
   36HFI     H2  921   0.249   0.043   0.210  0.6609 -0.6252 -0.8844
   37HFI     O1  922   3.402   3.240   0.661 -0.1936 -0.1452 -0.2743
   37HFI     C1  923   3.278   3.245   0.745  0.5091 -0.2233  0.4888
   37HFI     C2  924   3.279   3.154   0.867  1.1160  0.3562 -1.1311
   37HFI     F1  925   3.184   3.192   0.953  0.3098  0.3408  0.0204
   37HFI     F2  926   3.392   3.149   0.941 -0.3482 -0.1302  0.3222
   37HFI     F3  927   3.256   3.027   0.826  0.4352  0.5556 -0.1109
   37HFI     C3  928   3.146   3.241   0.659 -0.0123 -0.9565  0.6966
   37HFI     F4  929   3.146   3.318   0.554 -0.3640  0.1658  0.7341
   37HFI     F5  930   3.035   3.275   0.731 -0.2685  0.9912 -0.3054
   37HFI     F6  931   3.124   3.116   0.617  0.2305 -0.0735 -0.2403
   37HFI     H1  932   3.392   3.177   0.588  0.4041 -2.1024  1.2893
   37HFI     H2  933   3.273   3.346   0.787 -1.6985  0.3802 -1.1987
   38HFI     O1  934   2.160   1.850   3.775  0.3599 -0.7211  0.2210
   38HFI     C1  935   2.059   1.769   3.703  0.0439  0.3070 -0.3550
   38HFI     C2  936   1.922   1.764   3.781  0.0841 -0.1755 -1.0468
   38HFI     F1  937   1.908   1.877   3.852  0.3441 -0.0612  0.3856
   38HFI     F2  938   1.913   1.663   3.864  0.4817  0.4275 -0.0871
   38HFI     F3  939   1.815   1.758   3.705 -0.3595  0.4142 -0.5562
   38HFI     C3  940   2.107   1.629   3.662 -0.1314  0.5850  0.4158
   38HFI     F4  941   2.159   1.559   3.763  0.4930  0.4428 -0.4706
   38HFI     F5  942   2.204   1.641   3.573 -0.4002 -0.2395  0.2138
   38HFI     F6  943   2.002   1.555   3.608 -0.2693 -0.1929 -0.4266
   38HFI     H1  944   2.135   1.841   3.869  0.3192 -1.2592  0.1619
   38HFI     H2  945   2.026   1.818   3.610  1.9047 -0.6805 -1.5604
   39HFI     O1  946   2.957   3.062   3.206 -0.0333 -0.7938  0.7330
   39HFI     C1  947   2.972   3.034   3.065  0.2879  0.4302 -0.7484
   39HFI     C2  948   2.851   2.966   3.001  0.4153 -0.2497  0.3642
   39HFI     F1  949   2.820   2.849   3.062  0.2670 -0.2275  0.1191
   39HFI     F2  950   2.869   2.941   2.866 -0.1402  0.2713  0.5472
   39HFI     F3  951   2.746   3.054   3.021  1.1623  0.0468 -0.0005
   39HFI     C3  952   3.109   2.963   3.015 -0.2238 -0.6196 -0.4842
   39HFI     F4  953   3.089   2.828   2.990 -0.0025  0.5604 -0.1396
   39HFI     F5  954   3.209   2.971   3.099 -0.3975  0.1817 -0.5043
   39HFI     F6  955   3.149   3.019   2.899  0.3468 -0.5268  0.3703
   39HFI     H1  956   2.895   2.997   3.244 -0.8583 -0.1295  0.5339
   39HFI     H2  957   2.970   3.129   3.010  2.2570 -0.1643 -1.8750
   40HFI     O1  958   1.098   0.698   1.468  0.0078 -0.0389  0.7407
   40HFI     C1  959   0.963   0.655   1.526 -0.4827 -0.1735  0.4311
   40HFI     C2  960   0.906   0.531   1.456 -0.6330 -0.0268 -0.2317
   40HFI     F1  961   0.872   0.559   1.328 -0.2330  0.1670 -0.4035
   40HFI     F2  962   0.798   0.488   1.508 -0.1317  0.1417 -0.5890
   40HFI     F3  963   0.999   0.435   1.454  0.1863 -0.4250 -0.0558
   40HFI     C3  964   0.865   0.775   1.529  0.6824  0.1890 -0.4771
   40HFI     F4  965   0.740   0.746   1.577  0.0486 -0.2765  0.0142
   40HFI     F5  966   0.846   0.826   1.401  0.1123  0.3482  0.2411
   40HFI     F6  967   0.915   0.869   1.602  0.0305  0.3781 -0.8616
   40HFI     H1  968   1.098   0.795   1.456  0.1542 -0.3791 -2.7221
   40HFI     H2  969   0.970   0.629   1.632 -2.4576 -0.3373  0.5372
   41HFI     O1  970   0.948   1.682   2.674 -0.0632 -0.3881  0.2190
   41HFI     C1  971   0.942   1.774   2.788 -0.7254 -0.0641 -0.3794
   41HFI     C2  972   0.826   1.733   2.880  0.1410  0.4733 -0.3314
   41HFI     F1  973   0.849   1.613   2.933  0.6907  0.5841 -0.5214
   41HFI     F2  974   0.706   1.732   2.814 -0.0865  0.4549 -0.1962
   41HFI     F3  975   0.810   1.818   2.984 -0.2955  0.1631 -0.4895
   41HFI     C3  976   0.944   1.922   2.751  0.6594  0.1527  0.0716
   41HFI     F4  977   0.990   2.005   2.849  0.1916  0.1525 -0.3648
   41HFI     F5  978   0.820   1.967   2.710 -0.4542 -0.2434 -0.2864
   41HFI     F6  979   1.027   1.937   2.653 -0.3353  0.2489  0.3339
   41HFI     H1  980   0.906   1.720   2.596  2.1023  0.4245 -0.5560
   41HFI     H2  981   1.030   1.761   2.851 -2.1069 -0.9691  1.4169
   42HFI     O1  982   2.999   0.112   0.533  0.0897 -0.3985 -0.0588
   42HFI     C1  983   3.093   0.219   0.498 -0.0733 -0.7371 -0.4825
   42HFI     C2  984   3.206   0.251   0.601 -0.0191 -0.4938  0.4410
   42HFI     F1  985   3.151   0.323   0.705 -0.1608  0.0068 -0.8999
   42HFI     F2  986   3.310   0.311   0.540  0.5358 -0.0913 -0.3847
   42HFI     F3  987   3.242   0.134   0.652  0.3889  0.0616  0.1994
   42HFI     C3  988   3.014   0.346   0.453  0.6047 -0.3054 -0.1623
   42HFI     F4  989   2.958   0.422   0.550  0.1809 -0.0891  0.2403
   42HFI     F5  990   2.915   0.311   0.367 -0.3447  0.2673 -0.3040
   42HFI     F6  991   3.101   0.430   0.388 -0.0820 -0.1443  0.2508
   42HFI     H1  992   2.919   0.133   0.482 -1.3284 -2.9291  1.0561
   42HFI     H2  993   3.144   0.187   0.406 -1.3629 -0.1267 -1.4250
   43HFI     O1  994   1.969   0.570   2.461  0.3265 -0.4853  0.3157
   43HFI     C1  995   2.055   0.645   2.372  0.4339  0.1544 -0.1538
   43HFI     C2  996   1.982   0.764   2.304 -0.1599  0.1143  0.0711
   43HFI     F1  997   2.067   0.847   2.243  0.1688  0.4136 -0.0238
   43HFI     F2  998   1.911   0.835   2.392 -0.4187 -0.1231  0.0971
   43HFI     F3  999   1.898   0.710   2.207  0.4150 -0.5115  0.1574
   43HFI     C3 1000   2.144   0.551   2.284  0.1554 -0.0966  0.7075
   43HFI     F4 1001   2.068   0.469   2.205  0.3601  0.1133 -0.5566
   43HFI     F5 1002   2.223   0.483   2.374  0.2004 -0.0379  0.2839
   43HFI     F6 1003   2.234   0.627   2.203  0.1491 -0.1456  0.1197
   43HFI     H1 1004   2.004   0.480   2.474 -1.9060 -1.7079 -1.6912
   43HFI     H2 1005   2.131   0.698   2.432  0.5536  0.2328 -0.3743
   44HFI     O1 1006   0.633   2.067   2.479  0.1658 -0.1969 -0.4906
   44HFI     C1 1007   0.726   2.132   2.383  0.4019  0.3549 -0.2414
   44HFI     C2 1008   0.650   2.242   2.303 -0.4016  0.5987 -0.8214
   44HFI     F1 1009   0.567   2.189   2.216  0.1789 -0.6233  0.3583
   44HFI     F2 1010   0.743   2.327   2.243 -0.3153 -0.5836 -0.5028
   44HFI     F3 1011   0.572   2.312   2.390 -0.2135 -0.1698 -0.0386
   44HFI     C3 1012   0.793   2.025   2.295  0.2092  0.2589  0.6538
   44HFI     F4 1013   0.699   1.957   2.222 -0.2227  1.0374 -0.3298
   44HFI     F5 1014   0.859   1.935   2.367 -0.1858 -0.3416  0.2442
   44HFI     F6 1015   0.878   2.082   2.204 -0.1225  0.2374 -0.0833
   44HFI     H1 1016   0.651   2.086   2.573 -0.6470  0.0288 -0.3722
   44HFI     H2 1017   0.804   2.185   2.438  1.2500 -0.7299 -0.3857
   45HFI     O1 1018   3.245   0.957   1.472 -0.1778 -0.2803  0.8588
   45HFI     C1 1019   3.379   0.897   1.488  0.7353  0.0676  0.8384
   45HFI     C2 1020   3.487   1.001   1.533  0.5829 -0.1222 -0.2276
   45HFI     F1 1021   3.431   1.092   1.616 -0.4312 -0.1574  0.2336
   45HFI     F2 1022   3.528   1.071   1.427  0.1673  0.2819 -0.1754
   45HFI     F3 1023   3.595   0.952   1.588  0.2061 -0.3686  0.6934
   45HFI     C3 1024   3.423   0.819   1.363 -0.5311 -0.3791 -0.7336
   45HFI     F4 1025   3.331   0.721   1.333 -0.4115  0.1229  0.4067
   45HFI     F5 1026   3.545   0.757   1.386 -0.0199 -0.4493 -0.5789
   45HFI     F6 1027   3.442   0.895   1.250 -0.2492 -0.0881  0.4517
   45HFI     H1 1028   3.239   1.048   1.505 -0.5976 -0.9231  2.6086
   45HFI     H2 1029   3.374   0.826   1.571 -0.6979  0.6128  1.2343
   46HFI     O1 1030   2.361   2.316   1.482  0.0545  0.2299  0.1820
   46HFI     C1 1031   2.441   2.443   1.508 -0.0348 -0.2511 -0.2519
   46HFI     C2 1032   2.414   2.556   1.406 -0.9050 -0.4470 -0.0275
   46HFI     F1 1033   2.483   2.552   1.292 -0.1053 -0.0201  0.1499
   46HFI     F2 1034   2.454   2.669   1.458 -0.4541  0.2505  0.4274
   46HFI     F3 1035   2.280   2.577   1.375 -0.1622  0.1405 -0.2089
   46HFI     C3 1036   2.592   2.403   1.532  0.4988  0.0629 -0.2273
   46HFI     F4 1037   2.656   2.365   1.420  0.4265  0.1795 -0.1249
   46HFI     F5 1038   2.590   2.295   1.619 -0.0678  0.4247  0.2284
   46HFI     F6 1039   2.655   2.500   1.593  0.5962  0.4034 -0.0954
   46HFI     H1 1040   2.418   2.238   1.479  0.8225  0.7339  1.3250
   46HFI     H2 1041   2.411   2.481   1.607 -1.7272 -0.8193 -0.5267
   47HFI     O1 1042   3.259   1.564   3.750  0.1738 -0.4468  0.0541
   47HFI     C1 1043   3.273   1.485   3.872 -0.4618 -0.0715 -0.2826
   47HFI     C2 1044   3.148   1.457   3.949  0.4594  0.3055 -0.0643
   47HFI     F1 1045   3.053   1.417   3.863  0.2878 -0.2705  0.1648
   47HFI     F2 1046   3.112   1.564   4.020  0.0042 -0.6003  0.2689
   47HFI     F3 1047   3.162   1.356   4.032 -0.1954 -0.5493 -0.1617
   47HFI     C3 1048   3.393   1.525   3.965 -0.2247 -0.6731 -0.4892
   47HFI     F4 1049   3.407   1.455   4.073 -0.5190 -0.7958  0.4436
   47HFI     F5 1050   3.392   1.655   3.999 -0.2263  0.1742 -0.4821
   47HFI     F6 1051   3.509   1.520   3.899 -0.0848  0.2897  0.1255
   47HFI     H1 1052   3.268   1.660   3.763 -4.3689 -0.1611  1.9864
   47HFI     H2 1053   3.303   1.387   3.833 -1.5770 -0.2062 -0.8170
   48HFI     O1 1054   1.184   0.490   0.280 -0.1720  0.2656  0.1092
   48HFI     C1 1055   1.149   0.599   0.184 -0.8678  0.5398  0.8290
   48HFI     C2 1056   0.999   0.609   0.161  0.3047  0.1227  0.1490
   48HFI     F1 1057   0.935   0.604   0.285  0.2289 -0.2306  0.0082
   48HFI     F2 1058   0.960   0.497   0.094  0.2812  0.6202  0.5116
   48HFI     F3 1059   0.967   0.721   0.093  0.0173 -0.0403  0.1322
   48HFI     C3 1060   1.233   0.589   0.046  0.3239  0.1303  0.2669
   48HFI     F4 1061   1.365   0.583   0.069  0.6669 -0.3030 -0.4848
   48HFI     F5 1062   1.190   0.699  -0.030  0.0664  0.2018  0.4882
   48HFI     F6 1063   1.201   0.477  -0.031 -0.3124  0.5421 -0.1320
   48HFI     H1 1064   1.101   0.464   0.323 -0.8719 -0.0962 -1.4412
   48HFI     H2 1065   1.169   0.689   0.243  0.5928  0.6884  0.1237
   49HFI     O1 1066   1.846   1.390   1.607 -0.1534  0.3988  0.4209
   49HFI     C1 1067   1.784   1.506   1.545  0.0893 -0.6405  0.3964
   49HFI     C2 1068   1.662   1.468   1.453 -0.2608  0.7863 -0.4068
   49HFI     F1 1069   1.584   1.573   1.436 -0.7664  0.4095 -0.0815
   49HFI     F2 1070   1.577   1.373   1.510  0.2877 -0.2707 -0.2283
   49HFI     F3 1071   1.698   1.421   1.338 -0.3090 -0.3030 -0.5476
   49HFI     C3 1072   1.890   1.598   1.490  0.0477  0.2252  0.0100
   49HFI     F4 1073   1.965   1.550   1.388 -0.5269 -0.4252 -0.0137
   49HFI     F5 1074   1.970   1.636   1.590  0.4955  0.0433  0.2086
   49HFI     F6 1075   1.829   1.714   1.444  0.1072  0.0694 -0.3929
   49HFI     H1 1076   1.792   1.310   1.604 -1.0516  0.9878  0.6105
   49HFI     H2 1077   1.728   1.561   1.622 -1.4976 -1.0036 -0.4776
   50HFI     O1 1078   2.138   2.917   3.297  0.3444  0.2895 -0.4077
   50HFI     C1 1079   2.243   2.823   3.272  0.0990  0.1424  0.0212
   50HFI     C2 1080   2.281   2.741   3.396  0.2729  0.0628 -0.0860
   50HFI     F1 1081   2.171   2.673   3.440 -0.0820 -0.0143  0.1676
   50HFI     F2 1082   2.327   2.808   3.500  0.2117 -0.9635 -0.4778
   50HFI     F3 1083   2.374   2.644   3.371  0.5853  0.6626 -0.1392
   50HFI     C3 1084   2.365   2.908   3.218  0.3335 -0.2250 -0.3616
   50HFI     F4 1085   2.461   2.819   3.173  0.7748  0.3173  0.3122
   50HFI     F5 1086   2.430   2.991   3.307  0.0168 -0.7875 -0.7656
   50HFI     F6 1087   2.330   2.979   3.103  0.4446 -0.6181  0.3122
   50HFI     H1 1088   2.056   2.866   3.290  1.3877 -1.4515 -0.0926
   50HFI     H2 1089   2.221   2.758   3.186 -1.6027  0.2889  0.3350
   51HFI     O1 1090   1.391   3.044   2.459  0.0061 -0.2848 -0.3893
   51HFI     C1 1091   1.271   3.066   2.372 -0.1216  0.2001  0.0403
   51HFI     C2 1092   1.237   2.940   2.282 -0.7567 -0.0711 -0.6797
   51HFI     F1 1093   1.125   2.962   2.212 -0.3495  0.3462 -0.1845
   51HFI     F2 1094   1.220   2.832   2.360  0.1811 -0.2789  0.0575
   51HFI     F3 1095   1.329   2.916   2.186  0.1105  0.5487  0.2958
   51HFI     C3 1096   1.296   3.199   2.286 -0.1319 -0.0747  0.6342
   51HFI     F4 1097   1.324   3.296   2.365  0.2138 -0.4358 -0.0552
   51HFI     F5 1098   1.187   3.223   2.213  0.2080  0.5152  0.1647
   51HFI     F6 1099   1.397   3.187   2.200  0.3369  0.3280  0.3565
   51HFI     H1 1100   1.453   2.984   2.416 -0.7445 -1.2529 -0.1380
   51HFI     H2 1101   1.186   3.086   2.438  1.4770  0.6062  2.0406
   52HFI     O1 1102   1.654   3.378   3.733  0.0119 -0.3023 -0.0727
   52HFI     C1 1103   1.579   3.383   3.610 -0.2584  0.5525 -0.5564
   52HFI     C2 1104   1.681   3.361   3.492 -0.0753  0.2854  0.0107
   52HFI     F1 1105   1.726   3.230   3.495  0.3449 -0.1236  0.2102
   52HFI     F2 1106   1.785   3.450   3.500  0.0354  0.1102 -0.2098
   52HFI     F3 1107   1.622   3.378   3.368  0.2347  0.3736  0.0234
   52HFI     C3 1108   1.499   3.520   3.602 -0.1783  0.2341 -0.6004
   52HFI     F4 1109   1.584   3.618   3.601 -0.1736  0.1844 -0.2382
   52HFI     F5 1110   1.439   3.540   3.723  0.2977 -0.2604  0.1386
   52HFI     F6 1111   1.409   3.526   3.502  0.3928  0.1583  0.4567
   52HFI     H1 1112   1.724   3.445   3.726 -1.2411  0.7818 -2.7801
   52HFI     H2 1113   1.501   3.306   3.610  0.0770  0.2117 -1.3721
   53HFI     O1 1114   1.659   2.655   0.910  0.0831 -0.2292 -0.4575
   53HFI     C1 1115   1.770   2.720   0.987  0.1611  0.9283 -0.0571
   53HFI     C2 1116   1.744   2.864   1.028  0.4825 -0.0331 -0.0482
   53HFI     F1 1117   1.641   2.858   1.112 -0.3343 -0.0790  0.0660
   53HFI     F2 1118   1.706   2.945   0.928 -0.3605 -0.2290 -0.3471
   53HFI     F3 1119   1.844   2.910   1.100 -0.1395  0.0291 -0.0347
   53HFI     C3 1120   1.910   2.694   0.914  1.0239  0.0058 -0.8525
   53HFI     F4 1121   1.920   2.580   0.853 -0.5363  0.7522 -0.1080
   53HFI     F5 1122   2.004   2.698   1.012  0.3487 -0.4034  0.2147
   53HFI     F6 1123   1.940   2.788   0.825 -0.1576 -0.5028  0.0966
   53HFI     H1 1124   1.672   2.663   0.814 -2.4675  1.6263 -0.7169
   53HFI     H2 1125   1.778   2.657   1.077 -0.1532  2.7518  1.2631
   54HFI     O1 1126   3.057   3.402   0.207  0.1219 -0.3814 -0.1291
   54HFI     C1 1127   3.054   3.477   0.086 -0.0638 -0.1868 -0.0465
   54HFI     C2 1128   2.990   3.393  -0.031 -0.4565  0.1364  0.3773
   54HFI     F1 1129   2.984   3.473  -0.138 -0.7717 -0.1843  0.0758
   54HFI     F2 1130   2.864   3.347  -0.006  0.4187 -0.2298 -0.0294
   54HFI     F3 1131   3.065   3.290  -0.068  0.3940 -0.0655 -0.3974
   54HFI     C3 1132   3.194   3.528   0.049 -0.0280  0.0129 -0.2875
   54HFI     F4 1133   3.288   3.428   0.059 -0.0377 -0.3024  0.2008
   54HFI     F5 1134   3.227   3.617   0.145 -0.7289 -0.0034  0.2295
   54HFI     F6 1135   3.204   3.584  -0.076 -0.5814 -0.2032  0.1114
   54HFI     H1 1136   3.143   3.361   0.224 -0.9580 -2.1803  1.2180
   54HFI     H2 1137   2.986   3.562   0.100 -0.0796 -0.0813 -0.7080
   55HFI     O1 1138   2.693   3.058   1.310  0.1882  0.1914  0.2002
   55HFI     C1 1139   2.714   2.957   1.405  0.0299  0.2694  0.3357
   55HFI     C2 1140   2.604   2.957   1.510 -0.6993 -0.3535 -0.1014
   55HFI     F1 1141   2.609   3.064   1.599 -0.5586 -0.0699 -0.1445
   55HFI     F2 1142   2.618   2.840   1.575 -0.1178 -0.0617 -0.0427
   55HFI     F3 1143   2.483   2.962   1.449 -0.1355 -0.1350 -0.1291
   55HFI     C3 1144   2.859   2.952   1.467  0.0867  0.4368 -0.2421
   55HFI     F4 1145   2.871   2.832   1.527  0.6829  0.1937  0.2422
   55HFI     F5 1146   2.872   3.051   1.557 -0.1431  0.0517  0.0959
   55HFI     F6 1147   2.954   2.962   1.379  0.0823 -0.2328  0.1922
   55HFI     H1 1148   2.724   3.141   1.350 -0.6021 -0.0321  1.3251
   55HFI     H2 1149   2.700   2.860   1.355 -2.2700  0.3882  0.7017
   56HFI     O1 1150   2.072   3.213   1.074  0.0994 -0.2060 -0.1380
   56HFI     C1 1151   2.077   3.356   1.114 -0.0622  0.1865 -0.3381
   56HFI     C2 1152   1.952   3.425   1.047  0.0693 -0.1260 -0.3626
   56HFI     F1 1153   1.952   3.415   0.908 -0.2181 -0.0391 -0.2383
   56HFI     F2 1154   1.948   3.558   1.077  0.6544  0.2047 -0.1112
   56HFI     F3 1155   1.835   3.366   1.078  0.1233 -0.8521  0.0175
   56HFI     C3 1156   2.212   3.416   1.097  0.3490 -0.4306  0.0158
   56HFI     F4 1157   2.212   3.557   1.107 -0.6367 -0.4041  0.5584
   56HFI     F5 1158   2.267   3.387   0.980  0.0353  0.0844  0.4380
   56HFI     F6 1159   2.304   3.370   1.185 -0.2418  0.0155  0.0767
   56HFI     H1 1160   2.115   3.193   0.989 -0.0958 -0.5478 -0.1558
   56HFI     H2 1161   2.061   3.365   1.222 -0.4939 -1.7153 -0.2274
   57HFI     O1 1162   1.455   2.821   3.545 -0.0169 -0.2778 -0.2271
   57HFI     C1 1163   1.417   2.840   3.405 -0.3048  0.1770 -0.7196
   57HFI     C2 1164   1.545   2.834   3.313  0.0374 -0.0533 -0.0781
   57HFI     F1 1165   1.618   2.943   3.338 -0.0182 -0.3565 -0.2103
   57HFI     F2 1166   1.522   2.836   3.183 -0.2753 -0.0416  0.3207
   57HFI     F3 1167   1.634   2.730   3.344  0.5645 -0.0150 -0.1242
   57HFI     C3 1168   1.335   2.969   3.368  0.2597 -0.7230 -0.3591
   57HFI     F4 1169   1.223   2.978   3.429 -0.2977  0.4710 -0.2113
   57HFI     F5 1170   1.315   2.977   3.233 -0.0927  0.4041 -0.0237
   57HFI     F6 1171   1.409   3.083   3.395 -0.1943 -0.3368 -0.1420
   57HFI     H1 1172   1.517   2.890   3.574 -0.9984  0.1290  0.9452
   57HFI     H2 1173   1.346   2.765   3.368 -0.3996  0.6488 -1.4846
   58HFI     O1 1174   0.986   2.948   1.230  0.0960  0.2339  0.3228
   58HFI     C1 1175   1.031   2.966   1.371 -0.9941  0.4819 -0.4117
   58HFI     C2 1176   1.004   2.835   1.453 -0.1074  0.0149 -0.4857
   58HFI     F1 1177   1.097   2.824   1.558  0.1039 -0.7973 -0.2061
   58HFI     F2 1178   1.013   2.725   1.374  0.4215  0.0663  0.2654
   58HFI     F3 1179   0.882   2.837   1.517 -0.0875 -0.3703  0.0359
   58HFI     C3 1180   0.970   3.097   1.433  0.7139  0.2446  0.8035
   58HFI     F4 1181   1.029   3.203   1.372 -0.6116 -0.3142  0.1183
   58HFI     F5 1182   1.000   3.106   1.567  0.4167 -0.3112 -0.0301
   58HFI     F6 1183   0.838   3.105   1.413  0.1348  0.7159 -0.0394
   58HFI     H1 1184   1.032   2.869   1.197  0.3182 -0.2653  1.7997
   58HFI     H2 1185   1.139   2.979   1.362 -1.0590  0.0563 -1.9269
   59HFI     O1 1186   0.619   1.969   1.351  0.0566  0.0074  0.2879
   59HFI     C1 1187   0.646   1.836   1.395  0.1102 -0.3629 -0.1376
   59HFI     C2 1188   0.627   1.826   1.539  0.5727 -0.5185  0.1791
   59HFI     F1 1189   0.727   1.901   1.593  0.5485  0.3299  0.4824
   59HFI     F2 1190   0.638   1.703   1.591  0.1278  0.1249 -0.1826
   59HFI     F3 1191   0.510   1.883   1.583 -0.1144 -0.1854  0.2335
   59HFI     C3 1192   0.778   1.782   1.346  0.3665 -0.3560  0.2204
   59HFI     F4 1193   0.770   1.780   1.209 -0.1024 -0.1637 -0.4776
   59HFI     F5 1194   0.802   1.650   1.387 -0.2726  0.1444 -0.1468
   59HFI     F6 1195   0.882   1.859   1.370  0.0145 -0.4196 -0.4548
   59HFI     H1 1196   0.681   2.034   1.389  1.2390  0.2073 -1.8918
   59HFI     H2 1197   0.568   1.776   1.348 -1.0987  2.2693 -1.5178
   60HFI     O1 1198   0.868   2.612   3.481  0.3821 -0.0408 -0.3546
   60HFI     C1 1199   0.885   2.587   3.337 -0.5940  0.7848 -0.2118
   60HFI     C2 1200   0.858   2.718   3.252 -0.0184  0.0377  0.4697
   60HFI     F1 1201   0.732   2.771   3.285  0.2918 -0.5458 -0.5267
   60HFI     F2 1202   0.868   2.695   3.118 -0.3970 -0.3125  0.0368
   60HFI     F3 1203   0.950   2.805   3.283 -0.4582  0.0475  0.4820
   60HFI     C3 1204   0.804   2.466   3.288  0.3101 -0.0596  0.0135
   60HFI     F4 1205   0.813   2.352   3.361 -0.7542 -0.1173  0.1666
   60HFI     F5 1206   0.844   2.425   3.168 -0.3136  0.2863  0.3417
   60HFI     F6 1207   0.673   2.495   3.282 -0.0084  0.0078  0.1528
   60HFI     H1 1208   0.816   2.693   3.495 -0.8082 -1.4178  3.8514
   60HFI     H2 1209   0.986   2.551   3.312 -1.8148 -1.6714 -1.8412
   61HFI     O1 1210   1.294   2.816   2.699 -0.4605  0.5828 -0.2654
   61HFI     C1 1211   1.331   2.904   2.816 -0.3084 -0.3744  0.6846
   61HFI     C2 1212   1.226   3.007   2.842 -0.0556 -0.6496  0.0036
   61HFI     F1 1213   1.174   3.055   2.721 -0.8513 -0.4841 -0.0091
   61HFI     F2 1214   1.256   3.109   2.938  0.0767 -0.0635 -0.4998
   61HFI     F3 1215   1.133   2.931   2.904  0.4725  0.4036  0.7744
   61HFI     C3 1216   1.468   2.972   2.795  1.0951 -0.9766 -0.1456
   61HFI     F4 1217   1.465   3.077   2.707 -0.6351 -0.3260  0.3290
   61HFI     F5 1218   1.555   2.877   2.746  0.0073  0.1604  0.0200
   61HFI     F6 1219   1.519   3.018   2.907 -0.0241  0.5678  0.0583
   61HFI     H1 1220   1.197   2.819   2.691 -0.4086  1.8921 -0.4883
   61HFI     H2 1221   1.347   2.844   2.906  0.9359  0.8109  1.2701
   62HFI     O1 1222   1.059   2.745   0.987 -0.6647 -0.1587 -0.4507
   62HFI     C1 1223   1.193   2.694   0.983  0.5106  1.0397 -0.3157
   62HFI     C2 1224   1.292   2.795   1.038 -0.0947  0.5907  0.3253
   62HFI     F1 1225   1.264   2.814   1.163  0.2485  0.0524 -0.7716
   62HFI     F2 1226   1.296   2.914   0.978  0.0307  0.1123 -0.2114
   62HFI     F3 1227   1.407   2.742   1.029 -0.1168  0.0728 -0.0320
   62HFI     C3 1228   1.230   2.646   0.839 -0.2099  0.1394  0.2036
   62HFI     F4 1229   1.345   2.580   0.840 -0.4054  0.1378  0.6466
   62HFI     F5 1230   1.241   2.759   0.757  0.3079 -0.2850  0.8100
   62HFI     F6 1231   1.136   2.566   0.791 -0.2504 -0.4844  0.2873
   62HFI     H1 1232   1.010   2.666   0.961 -0.7877 -0.5583  0.9432
   62HFI     H2 1233   1.200   2.599   1.037  1.8677  1.0520 -0.4617
   63HFI     O1 1234   1.229   3.355   3.716  0.4279 -0.3097  0.6706
   63HFI     C1 1235   1.096   3.377   3.763  0.2020 -0.1234  0.1284
   63HFI     C2 1236   1.047   3.526   3.742 -0.7783 -0.0184 -0.5032
   63HFI     F1 1237   1.075   3.566   3.617 -0.7195 -0.5318 -0.2132
   63HFI     F2 1238   1.095   3.616   3.828  0.4034 -0.2832 -0.2416
   63HFI     F3 1239   0.911   3.527   3.743  0.4776  0.2220  0.0538
   63HFI     C3 1240   1.098   3.336   3.909 -0.2588 -0.0674 -0.0857
   63HFI     F4 1241   0.969   3.350   3.959  0.5711  0.6301  0.3622
   63HFI     F5 1242   1.176   3.419   3.983  0.4522 -0.1663 -0.0901
   63HFI     F6 1243   1.134   3.213   3.938  0.6325  0.2398  0.3357
   63HFI     H1 1244   1.292   3.390   3.781  0.6273  0.6771 -0.0523
   63HFI     H2 1245   1.027   3.306   3.715 -0.2027  1.3228 -1.4784
   64HFI     O1 1246   1.325   0.185   0.363 -0.1162 -0.0209  0.0295
   64HFI     C1 1247   1.405   0.200   0.486  0.5968 -0.1312 -0.0924
   64HFI     C2 1248   1.324   0.275   0.594 -0.3304  0.1701 -0.5781
   64HFI     F1 1249   1.281   0.396   0.547  0.0657  0.2849 -0.2629
   64HFI     F2 1250   1.384   0.302   0.709 -0.0906  0.0959 -0.2577
   64HFI     F3 1251   1.216   0.201   0.628 -0.0363  0.4747 -0.4911
   64HFI     C3 1252   1.543   0.265   0.452 -0.1810 -0.3171  0.4353
   64HFI     F4 1253   1.613   0.200   0.353 -0.1378 -0.2204  0.1240
   64HFI     F5 1254   1.625   0.275   0.560 -0.5056 -0.5040  0.0247
   64HFI     F6 1255   1.532   0.399   0.406  0.6002 -0.4237  0.8542
   64HFI     H1 1256   1.307   0.271   0.323 -0.3407  0.8550  1.9688
   64HFI     H2 1257   1.428   0.100   0.524  1.5708  1.0454  2.5325
   65HFI     O1 1258   2.316   2.908   0.807 -0.2313 -0.4739  0.3361
   65HFI     C1 1259   2.325   2.842   0.936  0.3263 -0.4140  0.0230
   65HFI     C2 1260   2.426   2.919   1.021  0.0130 -0.4226  1.1547
   65HFI     F1 1261   2.540   2.934   0.954 -0.1026  0.1918  0.1781
   65HFI     F2 1262   2.456   2.864   1.139  0.3249 -0.1875  0.1449
   65HFI     F3 1263   2.372   3.042   1.044  0.3358 -0.0814 -0.6238
   65HFI     C3 1264   2.340   2.691   0.933 -0.1495  0.2918  0.1577
   65HFI     F4 1265   2.321   2.619   1.046 -0.3017  0.0472 -0.1797
   65HFI     F5 1266   2.468   2.662   0.897 -0.1326  0.4571  0.0875
   65HFI     F6 1267   2.257   2.641   0.837 -0.0717  0.2726 -0.3469
   65HFI     H1 1268   2.400   2.886   0.762 -0.9474 -2.1250 -0.2199
   65HFI     H2 1269   2.233   2.861   0.993  1.7039 -0.5333  2.3780
   66HFI     O1 1270   2.700   1.647   1.086  0.1712 -0.4605  0.0458
   66HFI     C1 1271   2.769   1.780   1.084 -0.2375 -0.8160  0.7272
   66HFI     C2 1272   2.687   1.875   0.999  0.7116  0.5395 -0.6421
   66HFI     F1 1273   2.702   1.836   0.869 -0.1921  0.2142  0.0544
   66HFI     F2 1274   2.727   1.999   1.012  0.6182 -0.1607 -0.2098
   66HFI     F3 1275   2.560   1.870   1.024  0.1716 -0.0326 -0.0469
   66HFI     C3 1276   2.919   1.762   1.031  0.0300 -0.0205 -0.6006
   66HFI     F4 1277   2.997   1.694   1.119 -0.1036 -0.1898 -0.2591
   66HFI     F5 1278   2.981   1.882   1.007 -0.3162  0.2127 -0.5559
   66HFI     F6 1279   2.926   1.703   0.920  0.4543  0.0043  0.1950
   66HFI     H1 1280   2.731   1.597   1.009 -3.4419 -1.2729 -0.9624
   66HFI     H2 1281   2.767   1.825   1.184 -0.1916 -0.9000  0.7659
   67HFI     O1 1282   1.116   1.128   3.600  0.0067 -0.6292  0.3135
   67HFI     C1 1283   1.200   1.019   3.655  0.0636 -0.5343  0.6357
   67HFI     C2 1284   1.269   1.054   3.793  0.2580  0.2411  0.3690
   67HFI     F1 1285   1.179   1.069   3.885 -0.1785 -0.3388 -0.2021
   67HFI     F2 1286   1.347   1.172   3.781  0.1661  0.3918  0.0393
   67HFI     F3 1287   1.357   0.958   3.839  0.0998  0.2683 -0.3219
   67HFI     C3 1288   1.294   0.973   3.539  0.1607  0.3499 -0.1437
   67HFI     F4 1289   1.226   0.914   3.442  0.5561 -0.0705  0.1388
   67HFI     F5 1290   1.385   0.881   3.586 -0.1930 -0.4809  0.5380
   67HFI     F6 1291   1.362   1.072   3.487 -0.0426 -0.0967  0.1607
   67HFI     H1 1292   1.139   1.215   3.637 -1.6027  0.2778 -0.7765
   67HFI     H2 1293   1.137   0.931   3.675  0.7563 -1.5303 -1.4354
   68HFI     O1 1294   2.990   1.153   3.771  0.0100 -0.2175  0.4586
   68HFI     C1 1295   2.860   1.101   3.792 -0.0665  0.3812  0.4982
   68HFI     C2 1296   2.844   1.032   3.932  0.2437  0.1682  0.6897
   68HFI     F1 1297   2.863   1.122   4.028 -0.4030  0.8418 -0.3604
   68HFI     F2 1298   2.927   0.928   3.952 -0.0337 -0.2438  0.0215
   68HFI     F3 1299   2.719   0.982   3.954  0.3226 -0.5749  0.0334
   68HFI     C3 1300   2.820   0.989   3.680  0.9294 -0.3624 -0.8511
   68HFI     F4 1301   2.803   1.049   3.564 -0.1059 -0.7341  0.1508
   68HFI     F5 1302   2.698   0.928   3.705 -0.0624 -0.4639 -0.3650
   68HFI     F6 1303   2.908   0.890   3.670  0.5729 -0.1412 -0.0407
   68HFI     H1 1304   3.063   1.102   3.813  0.4472  1.0084  1.2162
   68HFI     H2 1305   2.785   1.181   3.794  0.4753  1.0865 -3.8540
   69HFI     O1 1306   0.392   1.617   0.072 -0.2328  0.1075 -0.9148
   69HFI     C1 1307   0.487   1.505   0.029 -0.0710 -0.0552 -0.0681
   69HFI     C2 1308   0.568   1.544  -0.104  0.3402 -0.6311 -0.2957
   69HFI     F1 1309   0.676   1.462  -0.117  0.5235 -0.2618  0.0942
   69HFI     F2 1310   0.621   1.667  -0.094  0.1200 -0.3651 -0.4795
   69HFI     F3 1311   0.496   1.524  -0.212  0.3720 -0.1981  0.6563
   69HFI     C3 1312   0.404   1.373   0.014 -0.5502  0.5787 -0.8501
   69HFI     F4 1313   0.479   1.272  -0.044  0.3988 -0.0503  0.2807
   69HFI     F5 1314   0.289   1.387  -0.054 -0.1318  0.2526  0.0410
   69HFI     F6 1315   0.370   1.323   0.141 -0.0471  0.1101 -0.4415
   69HFI     H1 1316   0.402   1.697   0.018 -1.0500  2.0228  1.6927
   69HFI     H2 1317   0.564   1.475   0.101  0.4719 -2.0175 -1.4052
   70HFI     O1 1318   2.580   2.228   0.410  0.4410 -0.4853 -0.1253
   70HFI     C1 1319   2.691   2.195   0.499  0.5694 -0.2072  0.4710
   70HFI     C2 1320   2.636   2.108   0.622 -0.7974  0.1934 -1.0328
   70HFI     F1 1321   2.534   2.166   0.684 -0.1480 -0.0384  0.6305
   70HFI     F2 1322   2.741   2.076   0.707 -0.3309 -0.0785  0.5892
   70HFI     F3 1323   2.589   1.993   0.570  0.2295 -0.2001  0.2785
   70HFI     C3 1324   2.770   2.325   0.541  0.4217  0.8456 -0.2787
   70HFI     F4 1325   2.728   2.376   0.664 -0.3351  0.1701  0.1878
   70HFI     F5 1326   2.750   2.428   0.451  0.1223 -0.5137  0.0459
   70HFI     F6 1327   2.898   2.293   0.555 -0.0682  0.0465 -0.0435
   70HFI     H1 1328   2.529   2.295   0.459 -0.7112 -1.8912  0.6311
   70HFI     H2 1329   2.762   2.132   0.444  1.1259  0.6965  0.1466
   71HFI     O1 1330   0.101   2.868   2.901 -0.4800 -0.1052 -0.4185
   71HFI     C1 1331   0.067   2.728   2.864  1.0417  0.4726  0.0449
   71HFI     C2 1332   0.072   2.635   2.991  0.6774  0.6959 -0.2923
   71HFI     F1 1333  -0.026   2.675   3.075 -0.2261  0.1690  0.5277
   71HFI     F2 1334   0.185   2.629   3.057 -0.1276 -0.3191  0.1876
   71HFI     F3 1335   0.027   2.513   2.968  0.6952  0.2236  0.4441
   71HFI     C3 1336   0.163   2.677   2.750  0.0039  0.7009 -0.0154
   71HFI     F4 1337   0.133   2.558   2.706 -0.4585  0.0113 -0.1686
   71HFI     F5 1338   0.291   2.672   2.787  0.0764  0.1143  0.2273
   71HFI     F6 1339   0.171   2.763   2.643 -0.0725  0.5388 -0.2155
   71HFI     H1 1340   0.189   2.869   2.942 -0.4237 -2.3775 -0.4338
   71HFI     H2 1341  -0.032   2.731   2.815  0.6909 -1.6023  0.5879
   72HFI     O1 1342   2.863   2.158   1.590 -0.1571 -0.5884  0.3640
   72HFI     C1 1343   2.935   2.189   1.465 -0.6115  0.2959 -0.0276
   72HFI     C2 1344   2.949   2.066   1.385  0.2084  0.0413  0.2060
   72HFI     F1 1345   2.978   1.956   1.453  0.0203  0.6221  0.0611
   72HFI     F2 1346   3.057   2.071   1.291 -0.1831 -0.0736 -0.6637
   72HFI     F3 1347   2.835   2.038   1.320 -0.0709 -0.0261  0.3171
   72HFI     C3 1348   3.081   2.255   1.500  0.3861 -0.1530 -0.2449
   72HFI     F4 1349   3.075   2.353   1.591  0.3701 -0.0196 -0.1648
   72HFI     F5 1350   3.133   2.311   1.389  0.5021  0.1146 -0.0923
   72HFI     F6 1351   3.164   2.158   1.549  0.0445 -0.1374  0.4831
   72HFI     H1 1352   2.853   2.064   1.613 -0.0052 -0.4860  0.8403
   72HFI     H2 1353   2.886   2.265   1.404 -4.4486 -0.9704  1.3785
   73HFI     O1 1354   1.697   2.727   0.304  0.2850 -0.8600 -0.2232
   73HFI     C1 1355   1.645   2.690   0.435  0.1253  0.4695  0.6787
   73HFI     C2 1356   1.633   2.808   0.537  0.5799 -0.1604  0.6158
   73HFI     F1 1357   1.560   2.906   0.491 -0.4841  0.0266  0.2535
   73HFI     F2 1358   1.755   2.860   0.567  0.1381 -0.2581  0.0512
   73HFI     F3 1359   1.575   2.783   0.657 -0.1335 -0.1325 -0.1745
   73HFI     C3 1360   1.732   2.574   0.494  0.1897  0.4406 -0.1657
   73HFI     F4 1361   1.713   2.458   0.424  0.5276  0.8614 -0.9887
   73HFI     F5 1362   1.700   2.541   0.624 -0.1364 -0.0317 -0.2616
   73HFI     F6 1363   1.859   2.600   0.501 -0.4320  0.2021  0.3170
   73HFI     H1 1364   1.752   2.807   0.313 -1.0839 -0.0051  0.5764
   73HFI     H2 1365   1.546   2.646   0.421  0.6759 -0.6494  0.2285
   74HFI     O1 1366   0.305   0.802   2.515 -0.1333 -0.0256 -0.2508
   74HFI     C1 1367   0.219   0.877   2.427 -0.2802 -0.4066 -0.0131
   74HFI     C2 1368   0.178   0.789   2.301  0.8393  0.0508  0.8991
   74HFI     F1 1369   0.091   0.861   2.218  0.5363  0.0688  0.3384
   74HFI     F2 1370   0.109   0.679   2.342 -0.0861  0.4225  0.4419
   74HFI     F3 1371   0.288   0.749   2.232 -0.1378 -0.4759 -0.4699
   74HFI     C3 1372   0.274   1.018   2.383  0.2916 -0.7722 -0.1610
   74HFI     F4 1373   0.304   1.087   2.495  0.3741 -0.5939  0.0026
   74HFI     F5 1374   0.183   1.094   2.317 -0.4479 -0.0399 -0.4604
   74HFI     F6 1375   0.388   1.006   2.311  0.8606  0.2497  0.1343
   74HFI     H1 1376   0.389   0.789   2.468  0.8821  2.1461  0.8783
   74HFI     H2 1377   0.130   0.898   2.486 -0.5878  1.6513 -1.1826
   75HFI     O1 1378   0.890   2.397   1.335  0.4057  0.5598 -0.3442
   75HFI     C1 1379   0.967   2.318   1.425  0.7062 -0.0082  0.0011
   75HFI     C2 1380   0.870   2.244   1.524  0.5565 -0.7020  0.2458
   75HFI     F1 1381   0.933   2.147   1.593  0.2691 -0.3017  0.5537
   75HFI     F2 1382   0.767   2.174   1.469  0.6989 -0.3054 -0.0820
   75HFI     F3 1383   0.816   2.331   1.617 -0.5448  0.0189 -0.0330
   75HFI     C3 1384   1.090   2.389   1.501  0.2670 -0.0127 -0.4478
   75HFI     F4 1385   1.038   2.488   1.579  0.3498  0.0869 -0.8627
   75HFI     F5 1386   1.182   2.443   1.427  0.1088 -0.3977  0.5846
   75HFI     F6 1387   1.152   2.297   1.582 -0.4136 -0.0141 -0.2778
   75HFI     H1 1388   0.828   2.445   1.393 -0.5361 -2.0795  0.8679
   75HFI     H2 1389   1.020   2.243   1.365  0.7743 -1.4150  1.7864
   76HFI     O1 1390   1.589   0.653   0.288  0.1950  0.2198 -0.6148
   76HFI     C1 1391   1.629   0.750   0.395  0.5838  0.3955  0.2655
   76HFI     C2 1392   1.774   0.730   0.455  0.9749  0.0726 -0.2617
   76HFI     F1 1393   1.863   0.709   0.355  0.1473 -0.7775 -0.0174
   76HFI     F2 1394   1.769   0.618   0.534  0.0525  0.4631  0.0856
   76HFI     F3 1395   1.814   0.832   0.533 -0.0736  0.2174  0.0489
   76HFI     C3 1396   1.511   0.765   0.500  0.4152 -0.3694  0.3016
   76HFI     F4 1397   1.533   0.870   0.589  0.6177  0.2181 -0.1387
   76HFI     F5 1398   1.491   0.654   0.568 -0.3865  0.1740 -0.5113
   76HFI     F6 1399   1.392   0.796   0.430 -0.1613 -0.2519 -0.2142
   76HFI     H1 1400   1.593   0.567   0.333  4.1033  0.8569  0.4260
   76HFI     H2 1401   1.630   0.847   0.344  0.0748  2.4021  3.8532
   77HFI     O1 1402   2.171   0.266   0.628  0.3213  0.3428  0.1627
   77HFI     C1 1403   2.069   0.308   0.529  0.3750  0.2228 -0.6478
   77HFI     C2 1404   1.962   0.203   0.501 -0.3212 -0.3129  0.3759
   77HFI     F1 1405   2.013   0.093   0.456  0.0856  0.1301 -0.6711
   77HFI     F2 1406   1.876   0.238   0.405 -0.3978 -0.4098  0.0873
   77HFI     F3 1407   1.894   0.177   0.609  0.0378  0.0328 -0.0196
   77HFI     C3 1408   2.125   0.374   0.399 -0.7066  0.0335 -1.2080
   77HFI     F4 1409   2.170   0.281   0.319  0.6257 -0.4042 -0.5067
   77HFI     F5 1410   2.234   0.450   0.437 -0.3281 -0.5361  0.4574
   77HFI     F6 1411   2.027   0.451   0.341 -0.4316  0.5343 -0.6205
   77HFI     H1 1412   2.237   0.204   0.592  0.8721  0.3098  1.1905
   77HFI     H2 1413   2.007   0.388   0.571  0.5210  0.9653 -1.8083
   78HFI     O1 1414   0.427   2.349   0.841  0.0851 -0.0091  0.2869
   78HFI     C1 1415   0.427   2.251   0.953  0.9216  0.8343  0.2619
   78HFI     C2 1416   0.544   2.269   1.060  0.3213  0.3673 -0.1528
   78HFI     F1 1417   0.551   2.393   1.116 -0.5753 -0.2061 -0.3408
   78HFI     F2 1418   0.669   2.249   1.005  0.3742  0.3997 -0.1305
   78HFI     F3 1419   0.531   2.177   1.154 -0.1299 -0.3840 -0.2051
   78HFI     C3 1420   0.407   2.109   0.895 -0.2859 -0.7361 -0.2889
   78HFI     F4 1421   0.322   2.110   0.794 -0.5198 -0.1503 -0.2061
   78HFI     F5 1422   0.376   2.017   0.984  0.0320 -0.0526  0.3075
   78HFI     F6 1423   0.523   2.080   0.840 -0.1560  0.4462  0.1114
   78HFI     H1 1424   0.342   2.341   0.793 -0.7390  0.6923  1.6064
   78HFI     H2 1425   0.336   2.265   1.012  0.1027 -1.9501 -0.2327
   79HFI     O1 1426   2.561   0.337   0.845 -0.0869  0.1500 -0.1431
   79HFI     C1 1427   2.475   0.360   0.961 -0.2107  0.0816 -0.5543
   79HFI     C2 1428   2.418   0.507   0.963  0.7224 -0.4743  0.0150
   79HFI     F1 1429   2.518   0.597   0.992  0.0188 -0.3931  0.2895
   79HFI     F2 1430   2.325   0.520   1.061 -0.1370  0.4174 -0.6496
   79HFI     F3 1431   2.358   0.534   0.843  0.1563 -0.3488  0.1222
   79HFI     C3 1432   2.565   0.332   1.084  0.1707 -0.5345  0.1004
   79HFI     F4 1433   2.690   0.390   1.074  0.2438  0.4588 -0.1680
   79HFI     F5 1434   2.578   0.199   1.096 -0.2851 -0.2997 -0.3030
   79HFI     F6 1435   2.505   0.381   1.200 -0.0063 -0.4582 -0.5660
   79HFI     H1 1436   2.520   0.388   0.773  1.4146  2.2093  0.3914
   79HFI     H2 1437   2.393   0.287   0.966  0.1275 -0.2855 -0.3247
   80HFI     O1 1438   1.658   2.690   1.331 -0.0940 -0.1222 -0.1641
   80HFI     C1 1439   1.536   2.629   1.380  0.5610 -0.1152  0.4254
   80HFI     C2 1440   1.462   2.723   1.474  0.8746 -0.9137 -0.8371
   80HFI     F1 1441   1.447   2.844   1.422 -0.0291  0.2405 -0.0621
   80HFI     F2 1442   1.530   2.736   1.589  0.6551  0.4451 -0.5738
   80HFI     F3 1443   1.336   2.683   1.501  0.0310  0.6441  0.1823
   80HFI     C3 1444   1.551   2.484   1.444  0.4846  0.8062  0.0287
   80HFI     F4 1445   1.584   2.395   1.348  0.1701 -0.5067  0.5444
   80HFI     F5 1446   1.448   2.437   1.512 -0.3137  0.4082  0.0598
   80HFI     F6 1447   1.655   2.488   1.532  0.4169 -0.1565  0.4391
   80HFI     H1 1448   1.716   2.696   1.408  0.1179  1.0079 -0.3971
   80HFI     H2 1449   1.472   2.619   1.292  2.1538 -0.8996 -0.6523
   81HFI     O1 1450   1.467   3.108   0.859  0.4204  0.1638  0.2544
   81HFI     C1 1451   1.480   3.252   0.856  0.1213 -0.5453  0.6745
   81HFI     C2 1452   1.351   3.324   0.805  0.2698  0.0188  0.1061
   81HFI     F1 1453   1.308   3.287   0.685 -0.0763  0.0811  0.5257
   81HFI     F2 1454   1.367   3.460   0.792  0.3132  0.4505  0.1453
   81HFI     F3 1455   1.253   3.303   0.893 -0.0847 -0.5736 -0.5345
   81HFI     C3 1456   1.600   3.294   0.767 -0.1080 -0.1018 -0.2561
   81HFI     F4 1457   1.580   3.260   0.634 -0.4590  0.0642 -0.0028
   81HFI     F5 1458   1.707   3.223   0.813 -0.0031  0.0446 -0.1654
   81HFI     F6 1459   1.631   3.429   0.787  0.0806  0.2217 -0.6461
   81HFI     H1 1460   1.512   3.070   0.935 -0.5291  1.2230  1.3780
   81HFI     H2 1461   1.501   3.292   0.956 -1.9527 -1.6316  1.5669
   82HFI     O1 1462   2.779   3.319   1.041  0.0427 -0.0415  0.2179
   82HFI     C1 1463   2.913   3.366   1.039  0.3765  0.0344 -0.0860
   82HFI     C2 1464   2.971   3.345   1.182  0.2331 -0.1447  0.4285
   82HFI     F1 1465   2.906   3.408   1.285  0.7403 -0.6643  0.5563
   82HFI     F2 1466   3.097   3.393   1.185 -0.4154 -0.0676 -0.0900
   82HFI     F3 1467   2.972   3.212   1.213 -0.0312 -0.2748  0.2080
   82HFI     C3 1468   2.921   3.515   0.990 -0.2641  0.6637 -0.8698
   82HFI     F4 1469   3.050   3.559   0.977 -0.1419  0.1328  0.1148
   82HFI     F5 1470   2.866   3.592   1.085 -0.2909 -0.9489 -0.1995
   82HFI     F6 1471   2.856   3.528   0.876  0.2852  0.3270  0.1752
   82HFI     H1 1472   2.729   3.391   1.083  1.3330  2.0618 -1.7234
   82HFI     H2 1473   2.974   3.315   0.965  1.5970  1.1603  0.1258
   83HFI     O1 1474   1.439   2.302   0.511  0.5048  0.1565 -0.7269
   83HFI     C1 1475   1.325   2.247   0.439 -0.2718 -0.5195 -0.3946
   83HFI     C2 1476   1.321   2.313   0.301 -0.0752  0.4663  0.1819
   83HFI     F1 1477   1.308   2.450   0.311  0.4181 -0.4333 -0.5740
   83HFI     F2 1478   1.217   2.268   0.221  0.1974  0.3434 -0.3825
   83HFI     F3 1479   1.435   2.295   0.228  0.0453  0.5812  0.3970
   83HFI     C3 1480   1.199   2.274   0.517 -0.8686  0.7152  0.5238
   83HFI     F4 1481   1.223   2.223   0.644 -0.5321 -0.1232  0.4831
   83HFI     F5 1482   1.094   2.210   0.463  0.3067 -0.1658 -0.8660
   83HFI     F6 1483   1.173   2.404   0.529  0.1697 -0.3245 -0.0789
   83HFI     H1 1484   1.449   2.268   0.602 -0.0211  3.2095  0.5222
   83HFI     H2 1485   1.348   2.140   0.434  0.3425 -0.4110  0.1199
   84HFI     O1 1486   1.031   0.571   2.555 -0.0850 -0.3212 -0.8718
   84HFI     C1 1487   1.141   0.628   2.638  1.0254  0.1663  0.2250
   84HFI     C2 1488   1.156   0.782   2.602  0.4081  0.2936  0.3882
   84HFI     F1 1489   1.243   0.845   2.676  0.0242 -0.4532 -0.1218
   84HFI     F2 1490   1.044   0.844   2.635 -0.2664  0.3252 -0.6603
   84HFI     F3 1491   1.177   0.806   2.475 -0.3023  0.0778 -0.1927
   84HFI     C3 1492   1.270   0.547   2.611 -0.2148 -0.3947  0.1359
   84HFI     F4 1493   1.356   0.589   2.513 -0.2256  0.0950 -0.4035
   84HFI     F5 1494   1.231   0.417   2.597  0.4685 -0.0672 -0.0613
   84HFI     F6 1495   1.349   0.545   2.723 -0.0942 -0.1510  0.0758
   84HFI     H1 1496   1.034   0.474   2.554 -1.1991 -0.3848  0.7817
   84HFI     H2 1497   1.124   0.622   2.746 -0.9386  1.9559  0.0665
   85HFI     O1 1498   2.642   1.335   0.162  0.6686 -0.2948 -0.2858
   85HFI     C1 1499   2.509   1.374   0.119  0.2698 -0.4843  0.0246
   85HFI     C2 1500   2.422   1.406   0.239  0.4267  0.0586  0.2313
   85HFI     F1 1501   2.303   1.454   0.205  0.0347  0.3444  0.3580
   85HFI     F2 1502   2.488   1.504   0.311 -0.6971 -0.2961  0.1766
   85HFI     F3 1503   2.409   1.310   0.330 -0.0834  0.5198 -0.0256
   85HFI     C3 1504   2.433   1.279   0.024  0.3122 -0.0961  0.0899
   85HFI     F4 1505   2.372   1.180   0.087  0.0181 -0.0403 -0.4071
   85HFI     F5 1506   2.516   1.215  -0.064 -0.6735  0.2965 -0.2744
   85HFI     F6 1507   2.343   1.356  -0.043  0.0346 -0.9741  0.6446
   85HFI     H1 1508   2.644   1.320   0.258 -1.5091 -1.5098 -0.4044
   85HFI     H2 1509   2.523   1.467   0.063 -0.3290  1.0193  2.3024
   86HFI     O1 1510   0.109   1.196   0.674  0.2620 -0.3836 -0.2159
   86HFI     C1 1511   0.251   1.179   0.696 -0.6464 -0.6819  0.0985
   86HFI     C2 1512   0.335   1.287   0.617  0.5895  0.7173 -0.0547
   86HFI     F1 1513   0.373   1.242   0.495  0.2053 -0.4080  0.3789
   86HFI     F2 1514   0.450   1.321   0.677 -0.4017 -0.5841 -0.2324
   86HFI     F3 1515   0.261   1.401   0.601 -0.3305 -0.0284 -0.1920
   86HFI     C3 1516   0.298   1.035   0.668  0.7552  0.8185 -0.9524
   86HFI     F4 1517   0.223   0.942   0.732 -0.3462 -0.2920  0.0483
   86HFI     F5 1518   0.427   1.014   0.697 -0.9563  0.0258  0.4327
   86HFI     F6 1519   0.275   1.009   0.535  0.1698  0.1110 -0.0338
   86HFI     H1 1520   0.077   1.158   0.591 -3.3829 -3.7417  2.5643
   86HFI     H2 1521   0.276   1.197   0.802 -0.5200 -0.3199  0.0072
   87HFI     O1 1522   0.476   0.666   0.483 -0.3756  0.0152  0.3587
   87HFI     C1 1523   0.359   0.581   0.505  0.8887 -0.0061  1.0036
   87HFI     C2 1524   0.235   0.636   0.442 -0.5293 -0.1473 -0.2486
   87HFI     F1 1525   0.173   0.730   0.517  0.5164 -0.1325 -0.3030
   87HFI     F2 1526   0.143   0.534   0.439  0.3600  0.1375 -0.0322
   87HFI     F3 1527   0.247   0.682   0.314  0.0002 -0.4037  0.1938
   87HFI     C3 1528   0.343   0.540   0.665  0.3056  0.1233 -0.0125
   87HFI     F4 1529   0.257   0.434   0.678  0.7731 -0.2635 -0.2919
   87HFI     F5 1530   0.296   0.644   0.735  0.0130  0.0194 -0.7038
   87HFI     F6 1531   0.456   0.499   0.722  0.2219 -0.3611 -0.3102
   87HFI     H1 1532   0.547   0.639   0.544 -1.2476  1.9169  2.2643
   87HFI     H2 1533   0.377   0.480   0.467 -1.5568 -0.4792  0.9819
   88HFI     O1 1534   2.108   1.807   0.266  0.3860 -0.2917  0.1786
   88HFI     C1 1535   2.120   1.921   0.366 -0.1277  0.1267  0.4341
   88HFI     C2 1536   1.983   1.954   0.437 -0.0994 -0.2526 -0.2039
   88HFI     F1 1537   2.018   2.035   0.541  0.1292 -0.3310 -0.4620
   88HFI     F2 1538   1.932   1.837   0.478  0.1606 -0.4685 -0.5719
   88HFI     F3 1539   1.891   2.010   0.350  0.5049 -0.3631 -0.3958
   88HFI     C3 1540   2.200   2.041   0.308 -0.5829  0.3740 -1.4429
   88HFI     F4 1541   2.304   1.989   0.242 -0.4071 -0.5015  0.2445
   88HFI     F5 1542   2.239   2.110   0.413  0.2069 -0.0414 -0.3013
   88HFI     F6 1543   2.125   2.108   0.222 -0.0285 -0.4574  0.0526
   88HFI     H1 1544   2.056   1.742   0.316  0.6006 -1.4413 -1.0592
   88HFI     H2 1545   2.182   1.894   0.452  2.1584  1.6190 -0.6790
   89HFI     O1 1546   2.061   1.555   2.798 -0.4789 -0.1065  0.7197
   89HFI     C1 1547   2.053   1.689   2.747 -0.1040  0.4718 -0.0023
   89HFI     C2 1548   2.189   1.761   2.772  0.3159  0.6187  0.2515
   89HFI     F1 1549   2.295   1.690   2.741  0.0948 -0.1109 -0.1533
   89HFI     F2 1550   2.203   1.801   2.900 -0.0385  0.2170 -0.0494
   89HFI     F3 1551   2.187   1.876   2.692  0.1169 -0.1936 -0.3962
   89HFI     C3 1552   1.933   1.770   2.804  0.4018 -0.4494  1.1499
   89HFI     F4 1553   1.913   1.891   2.744 -0.1522  0.4652  0.3114
   89HFI     F5 1554   1.949   1.787   2.937  0.0848 -0.0696 -0.1013
   89HFI     F6 1555   1.818   1.702   2.787 -0.1862 -0.2293  0.1298
   89HFI     H1 1556   2.120   1.568   2.875  1.0807 -2.4757 -0.0383
   89HFI     H2 1557   2.031   1.683   2.640 -0.6601  0.6629  0.0992
   90HFI     O1 1558   1.510   2.201   0.768  1.2454 -0.2078 -0.4532
   90HFI     C1 1559   1.621   2.283   0.821  0.8432 -0.2005  0.2396
   90HFI     C2 1560   1.753   2.230   0.761  0.0391  0.5839  0.4292
   90HFI     F1 1561   1.859   2.304   0.800 -0.0851  0.2570  0.6994
   90HFI     F2 1562   1.752   2.227   0.630  0.2237  0.1632  0.1006
   90HFI     F3 1563   1.779   2.101   0.802  0.1613 -0.8684  0.0931
   90HFI     C3 1564   1.616   2.295   0.976  0.0323  0.6624  0.1094
   90HFI     F4 1565   1.708   2.382   1.015  0.5307 -0.3488  0.3637
   90HFI     F5 1566   1.640   2.173   1.034 -0.0020  0.0761 -0.7752
   90HFI     F6 1567   1.499   2.345   1.021 -0.4553 -0.1287 -0.2808
   90HFI     H1 1568   1.491   2.127   0.828  0.3014  0.0268 -0.4471
   90HFI     H2 1569   1.604   2.380   0.775 -1.3175 -0.5558  0.2136
   91HFI     O1 1570   2.320   0.644   2.932 -0.3841 -0.1329  0.4656
   91HFI     C1 1571   2.294   0.500   2.957  0.1256  0.5028 -0.5459
   91HFI     C2 1572   2.379   0.445   3.074 -0.6526  0.1825  0.2710
   91HFI     F1 1573   2.510   0.444   3.043 -0.1521  0.3794  0.1763
   91HFI     F2 1574   2.349   0.325   3.110 -0.0625  0.2687 -0.3433
   91HFI     F3 1575   2.365   0.530   3.189 -0.3409  0.0274  0.1187
   91HFI     C3 1576   2.309   0.415   2.823  0.3173 -0.5776  0.1789
   91HFI     F4 1577   2.275   0.288   2.844  0.0899 -0.2277 -0.3029
   91HFI     F5 1578   2.428   0.418   2.765 -0.5550  0.2809  0.1348
   91HFI     F6 1579   2.218   0.461   2.735  0.7970 -0.0611  0.0582
   91HFI     H1 1580   2.412   0.639   2.900 -0.3240  0.9948  0.4624
   91HFI     H2 1581   2.188   0.485   2.983  0.8801 -0.6614  1.9917
   92HFI     O1 1582   0.316   0.098   1.117 -0.4590  0.0087 -0.8773
   92HFI     C1 1583   0.240   0.015   1.018  0.0814  0.3410 -1.2841
   92HFI     C2 1584   0.344  -0.041   0.921  0.1562  0.2206  0.5696
   92HFI     F1 1585   0.440   0.045   0.874 -0.1553 -0.1317 -0.0991
   92HFI     F2 1586   0.281  -0.101   0.816  0.0038  0.2191 -0.5001
   92HFI     F3 1587   0.411  -0.138   0.991  0.4819  0.0364 -0.1605
   92HFI     C3 1588   0.134   0.111   0.950  0.1680  0.0364 -0.2416
   92HFI     F4 1589   0.034   0.031   0.895 -0.5229 -0.0467 -0.4409
   92HFI     F5 1590   0.186   0.186   0.859  0.0421  0.2546 -0.2830
   92HFI     F6 1591   0.066   0.186   1.045  0.2445  0.1050  0.0966
   92HFI     H1 1592   0.369   0.162   1.067  0.6035 -0.0069  0.2002
   92HFI     H2 1593   0.178  -0.064   1.062 -1.5387  2.2403 -0.0769
   93HFI     O1 1594   2.444   1.981   3.177 -0.5150 -0.0516  0.0804
   93HFI     C1 1595   2.349   2.014   3.288 -0.2108  0.2041 -0.3192
   93HFI     C2 1596   2.311   2.162   3.301  0.1990  0.4531  0.2200
   93HFI     F1 1597   2.261   2.199   3.183  0.6483  0.1331  0.3247
   93HFI     F2 1598   2.414   2.240   3.326  0.5363  0.4900  0.1610
   93HFI     F3 1599   2.216   2.185   3.397 -0.1214  0.4112  0.0060
   93HFI     C3 1600   2.400   1.952   3.427  0.3548 -0.0298 -0.0145
   93HFI     F4 1601   2.490   2.029   3.482  0.7637  0.2892  0.2561
   93HFI     F5 1602   2.454   1.831   3.417 -0.2011  0.2458  0.4996
   93HFI     F6 1603   2.290   1.942   3.503 -0.0013  0.2896 -0.0047
   93HFI     H1 1604   2.531   2.016   3.203 -0.9060  0.4889  0.6816
   93HFI     H2 1605   2.257   1.956   3.281 -0.4096  0.2307  1.7614
   94HFI     O1 1606   2.244   0.609   0.204 -0.4382  0.5234 -0.1394
   94HFI     C1 1607   2.174   0.639   0.086  0.3103  0.5353  0.4865
   94HFI     C2 1608   2.231   0.566  -0.037 -1.1101  0.2315  0.5432
   94HFI     F1 1609   2.160   0.592  -0.154 -0.3047 -0.1195 -0.3016
   94HFI     F2 1610   2.224   0.436  -0.018 -0.3787 -0.6586 -0.1847
   94HFI     F3 1611   2.369   0.593  -0.049 -0.2355  1.0171  0.4380
   94HFI     C3 1612   2.157   0.787   0.059  0.1916  0.0024  0.2240
   94HFI     F4 1613   2.078   0.836   0.158 -0.3717  0.3220 -0.0580
   94HFI     F5 1614   2.088   0.812  -0.057  0.0347 -0.1570  0.2126
   94HFI     F6 1615   2.275   0.846   0.060  0.5084  0.0832  0.1277
   94HFI     H1 1616   2.327   0.658   0.201 -0.0362 -0.0042  1.7734
   94HFI     H2 1617   2.072   0.602   0.092  0.4621 -0.3503 -1.8172
   95HFI     O1 1618   3.399   1.405   0.879 -0.5520 -0.0860 -0.2913
   95HFI     C1 1619   3.360   1.351   1.006  0.4940  0.3206 -0.4258
   95HFI     C2 1620   3.477   1.270   1.072 -0.5315  0.1209 -0.0075
   95HFI     F1 1621   3.590   1.347   1.090  0.2754 -0.0619 -0.5113
   95HFI     F2 1622   3.517   1.169   0.996  0.4423  0.0736 -0.6288
   95HFI     F3 1623   3.451   1.210   1.193  0.0834 -0.6021  0.6086
   95HFI     C3 1624   3.218   1.281   1.017  0.0374 -0.7212  0.6860
   95HFI     F4 1625   3.230   1.144   0.993 -0.0869  0.2049 -0.6119
   95HFI     F5 1626   3.143   1.335   0.927 -0.6814 -0.0530  0.3347
   95HFI     F6 1627   3.168   1.305   1.140  0.2125 -0.1632  0.6527
   95HFI     H1 1628   3.420   1.331   0.819  0.2462 -0.9570  1.0136
   95HFI     H2 1629   3.347   1.432   1.078 -2.7257 -1.0408  0.5951
   96HFI     O1 1630   0.582   3.115   2.958 -0.1267 -0.1507 -0.2820
   96HFI     C1 1631   0.596   2.977   2.924 -0.0620  0.3109  0.4342
   96HFI     C2 1632   0.577   2.959   2.772 -0.2440 -0.3458 -0.4533
   96HFI     F1 1633   0.479   3.047   2.727 -0.0072 -0.0877 -0.2915
   96HFI     F2 1634   0.541   2.838   2.730  0.7801 -0.3465 -0.3502
   96HFI     F3 1635   0.692   3.001   2.709  0.8071  0.1915 -0.0572
   96HFI     C3 1636   0.494   2.896   3.015 -0.2895  0.5592  0.8542
   96HFI     F4 1637   0.498   2.952   3.142 -0.3877 -0.1745 -0.3838
   96HFI     F5 1638   0.526   2.767   3.023  0.4861 -0.3950 -0.1361
   96HFI     F6 1639   0.366   2.898   2.971  0.2456 -0.1349  0.3953
   96HFI     H1 1640   0.500   3.157   2.926  0.0082  1.8647  1.8824
   96HFI     H2 1641   0.694   2.932   2.944 -0.4155 -1.4189 -1.5675
   97HFI     O1 1642   2.725   0.922   1.046  0.2958 -0.3409  0.0672
   97HFI     C1 1643   2.868   0.907   1.049  0.7438  0.5070  0.0940
   97HFI     C2 1644   2.902   0.756   1.082  0.6940 -0.5849  0.4652
   97HFI     F1 1645   3.035   0.731   1.082  0.2444  0.2235  0.4268
   97HFI     F2 1646   2.844   0.671   0.994 -0.9098  0.2703  0.4791
   97HFI     F3 1647   2.859   0.715   1.204  0.6433 -0.5760 -0.1619
   97HFI     C3 1648   2.930   1.013   1.142 -0.2646  0.9117  0.2597
   97HFI     F4 1649   2.877   1.011   1.262 -0.0379 -0.6181  0.3162
   97HFI     F5 1650   2.911   1.130   1.088 -0.0295  0.3663  0.7013
   97HFI     F6 1651   3.066   0.989   1.158  0.6998  0.0477  0.0264
   97HFI     H1 1652   2.695   0.878   1.127  1.8731 -0.0902  0.7912
   97HFI     H2 1653   2.906   0.923   0.947 -0.9213 -1.4135 -0.8598
   98HFI     O1 1654   0.520   3.277   1.316  0.0093 -0.0618 -0.2858
   98HFI     C1 1655   0.495   3.153   1.394  0.5532  0.3986  0.1743
   98HFI     C2 1656   0.403   3.061   1.309 -0.0048  0.4027 -0.0113
   98HFI     F1 1657   0.451   3.056   1.182  0.0599 -0.1229 -0.1334
   98HFI     F2 1658   0.275   3.087   1.296 -0.0059  0.4604  0.3314
   98HFI     F3 1659   0.415   2.933   1.356 -0.1437 -0.0364 -0.2609
   98HFI     C3 1660   0.445   3.186   1.541  0.6191  0.3956  0.5743
   98HFI     F4 1661   0.520   3.287   1.600  0.3651 -0.0015 -0.2899
   98HFI     F5 1662   0.464   3.078   1.617  0.3278 -0.5620  0.0457
   98HFI     F6 1663   0.317   3.215   1.538  0.3481 -0.1808  0.2027
   98HFI     H1 1664   0.612   3.287   1.288  0.1167 -1.4581 -0.4478
   98HFI     H2 1665   0.591   3.100   1.407 -0.0197 -0.7546 -0.2454
   99HFI     O1 1666   1.247   1.445   3.249 -0.3371 -0.3546 -0.7562
   99HFI     C1 1667   1.139   1.539   3.266  0.3023 -0.1659  0.0682
   99HFI     C2 1668   1.156   1.658   3.160  0.1259  0.4058  0.1519
   99HFI     F1 1669   1.207   1.609   3.038 -0.0744  0.2357 -0.4895
   99HFI     F2 1670   1.243   1.746   3.211 -0.3135 -0.1008  0.1617
   99HFI     F3 1671   1.039   1.723   3.136  0.3786 -0.2222 -0.4190
   99HFI     C3 1672   1.112   1.578   3.409 -0.5630 -0.3006  0.2134
   99HFI     F4 1673   0.988   1.619   3.429 -0.6947 -0.6754  0.1810
   99HFI     F5 1674   1.197   1.679   3.459  0.1993 -0.3645  0.2952
   99HFI     F6 1675   1.129   1.457   3.478  0.1875 -0.2221 -0.1312
   99HFI     H1 1676   1.329   1.470   3.296 -0.1012 -3.7056  0.7394
   99HFI     H2 1677   1.052   1.480   3.235 -1.0491  1.7640  0.0951
  100HFI     O1 1678   0.005   1.775   1.461 -0.3451 -0.2497 -0.5481
  100HFI     C1 1679   0.046   1.649   1.530  0.0601  0.3133 -0.1787
  100HFI     C2 1680   0.185   1.611   1.483 -0.6457  0.4390 -0.2440
  100HFI     F1 1681   0.197   1.559   1.358 -0.0484 -0.0967  0.7724
  100HFI     F2 1682   0.231   1.515   1.569  0.0930 -0.3157 -0.1352
  100HFI     F3 1683   0.261   1.718   1.499 -0.6704  0.2881  0.7021
  100HFI     C3 1684  -0.060   1.539   1.512 -0.2147  0.4254  0.1875
  100HFI     F4 1685  -0.030   1.427   1.579 -0.0347 -0.1657  0.1317
  100HFI     F5 1686  -0.063   1.508   1.383  0.2207 -0.0054 -0.0269
  100HFI     F6 1687  -0.187   1.574   1.546 -0.2992 -0.1550 -0.1748
  100HFI     H1 1688   0.082   1.834   1.450 -1.1060  1.0251  0.8916
  100HFI     H2 1689   0.054   1.672   1.637 -0.1395 -2.8198  0.5377
  101HFI     O1 1690   3.209   0.792   2.232 -0.2112  0.5214  0.2011
  101HFI     C1 1691   3.122   0.883   2.305 -0.8910  0.1800  0.4070
  101HFI     C2 1692   3.177   0.909   2.451 -0.3104 -0.4422 -0.3464
  101HFI     F1 1693   3.298   0.965   2.435  0.0565 -0.1242 -0.1252
  101HFI     F2 1694   3.202   0.807   2.536 -0.2333 -0.0564 -0.4703
  101HFI     F3 1695   3.091   0.995   2.518 -0.2235  0.2124  0.2217
  101HFI     C3 1696   2.974   0.827   2.314 -0.2935  0.0688  0.1707
  101HFI     F4 1697   2.958   0.717   2.394 -0.1227 -0.2207 -0.2108
  101HFI     F5 1698   2.924   0.792   2.189  0.0741  0.0987  0.3177
  101HFI     F6 1699   2.884   0.918   2.371 -0.0294 -0.1158 -0.0386
  101HFI     H1 1700   3.298   0.817   2.262 -0.8064  1.3001  1.3525
  101HFI     H2 1701   3.127   0.980   2.256  0.1688 -1.2254 -2.3617
  102HFI     O1 1702   2.024   3.004   2.902 -0.0484  0.3013  0.0348
  102HFI     C1 1703   1.964   2.874   2.853  0.6357 -0.0745 -0.5997
  102HFI     C2 1704   1.867   2.817   2.962  0.4787  0.4142  0.0727
  102HFI     F1 1705   1.931   2.818   3.084 -0.4298  0.1605  0.0257
  102HFI     F2 1706   1.842   2.683   2.933  0.2599  0.3295 -0.3270
  102HFI     F3 1707   1.753   2.886   2.979  0.0781 -0.5076  0.5084
  102HFI     C3 1708   2.068   2.771   2.790 -0.1538  0.5536 -1.0149
  102HFI     F4 1709   2.179   2.844   2.749  0.1649  0.0864  0.0415
  102HFI     F5 1710   2.022   2.701   2.688  0.0758  0.0576  0.7641
  102HFI     F6 1711   2.110   2.689   2.888 -0.0656  0.5193  0.4057
  102HFI     H1 1712   2.105   3.024   2.851 -0.0014 -1.8187 -0.8052
  102HFI     H2 1713   1.900   2.897   2.767  1.1593  2.0016 -0.4725
  103HFI     O1 1714   3.230   1.856   0.366  0.1393 -0.0323 -0.1654
  103HFI     C1 1715   3.131   1.941   0.305  0.5085  0.3983  0.0893
  103HFI     C2 1716   3.177   1.993   0.160 -0.5367 -0.5156 -0.0922
  103HFI     F1 1717   3.298   2.055   0.154 -0.3407  0.3549 -0.4785
  103HFI     F2 1718   3.086   2.073   0.106 -0.0719 -0.2722  0.0191
  103HFI     F3 1719   3.191   1.889   0.084  0.3907  0.1435  0.1469
  103HFI     C3 1720   3.081   2.063   0.398  1.0804  0.3799  0.6888
  103HFI     F4 1721   3.053   2.018   0.524 -0.1767  0.2140  0.5747
  103HFI     F5 1722   2.976   2.133   0.343  0.6299  0.0029  0.4442
  103HFI     F6 1723   3.187   2.154   0.405  0.0154 -0.1885  0.4103
  103HFI     H1 1724   3.309   1.912   0.368 -0.2451  0.6066 -2.0353
  103HFI     H2 1725   3.046   1.878   0.273  0.4301  0.8022 -0.5002
  104HFI     O1 1726   1.274   1.920   2.900 -0.3230  0.0816 -0.3275
  104HFI     C1 1727   1.416   1.894   2.853 -0.6128  0.0938 -0.2126
  104HFI     C2 1728   1.410   1.784   2.750  0.3804  0.1501 -0.1963
  104HFI     F1 1729   1.336   1.829   2.650  0.0849  0.1898 -0.2321
  104HFI     F2 1730   1.345   1.672   2.798 -0.4238  0.5025 -0.0973
  104HFI     F3 1731   1.533   1.751   2.699  0.1417  0.0805 -0.4532
  104HFI     C3 1732   1.513   1.857   2.972  0.5487 -0.0141  0.0101
  104HFI     F4 1733   1.636   1.863   2.931  0.1519 -0.2142  0.1490
  104HFI     F5 1734   1.497   1.739   3.027  0.3688 -0.1690 -0.2733
  104HFI     F6 1735   1.484   1.949   3.069 -0.4947  0.0772  0.1363
  104HFI     H1 1736   1.236   1.978   2.831 -0.6961  1.9630  1.4266
  104HFI     H2 1737   1.442   1.990   2.808  0.0348 -0.0178 -0.0814
  105HFI     O1 1738   1.730   1.068   0.734  0.2042  0.3493  0.0301
  105HFI     C1 1739   1.747   1.029   0.871  0.9020  0.3494  0.0592
  105HFI     C2 1740   1.661   0.902   0.916 -0.2019  0.5575  0.5726
  105HFI     F1 1741   1.700   0.864   1.039 -0.6488  0.0346  0.0551
  105HFI     F2 1742   1.677   0.799   0.819 -0.0344 -0.9090 -0.0419
  105HFI     F3 1743   1.535   0.936   0.926 -0.4766 -0.1071  0.1757
  105HFI     C3 1744   1.734   1.156   0.969 -0.1196  0.6609  0.9415
  105HFI     F4 1745   1.755   1.112   1.090 -0.5556  0.4448  0.2320
  105HFI     F5 1746   1.613   1.207   0.958  0.1769  0.1399  0.1549
  105HFI     F6 1747   1.824   1.254   0.943  0.6518 -0.3144  0.1706
  105HFI     H1 1748   1.640   1.102   0.717 -0.0087 -0.9069 -1.5382
  105HFI     H2 1749   1.851   0.997   0.889  0.9957  1.6299  1.9691
  106HFI     O1 1750   0.194   0.255   3.524 -0.0977  0.2548  0.3896
  106HFI     C1 1751   0.282   0.211   3.643 -0.3633 -0.1384  0.2774
  106HFI     C2 1752   0.300   0.058   3.655  0.6196  0.0195 -0.3253
  106HFI     F1 1753   0.180  -0.005   3.654  0.1256 -0.1302  0.3620
  106HFI     F2 1754   0.383   0.032   3.762 -0.3247  0.5724  0.4271
  106HFI     F3 1755   0.367   0.007   3.549  0.2758 -0.0833  0.0106
  106HFI     C3 1756   0.231   0.284   3.782  0.0240 -0.2177  0.1401
  106HFI     F4 1757   0.307   0.258   3.891 -0.3474  0.3206 -0.0856
  106HFI     F5 1758   0.106   0.244   3.814  0.6763 -0.0194  0.2164
  106HFI     F6 1759   0.220   0.419   3.762  0.6339  0.5687 -0.2015
  106HFI     H1 1760   0.137   0.181   3.494  0.7301 -0.4470  0.5466
  106HFI     H2 1761   0.381   0.254   3.625  0.5726 -2.0221  0.7863
  107HFI     O1 1762   2.817   0.046   1.511 -0.1836 -0.0590  0.4400
  107HFI     C1 1763   2.676   0.078   1.526 -0.3657  0.1100 -0.4567
  107HFI     C2 1764   2.585  -0.012   1.446  0.2934 -0.0448  0.1933
  107HFI     F1 1765   2.595   0.009   1.309 -0.5877 -0.3830  0.0491
  107HFI     F2 1766   2.452   0.003   1.481  0.6179 -0.7777  0.1835
  107HFI     F3 1767   2.617  -0.141   1.454 -0.1942  0.3131 -0.4668
  107HFI     C3 1768   2.655   0.230   1.507 -0.5426  0.0095  0.0335
  107HFI     F4 1769   2.680   0.268   1.378 -0.0774  0.4031 -0.5738
  107HFI     F5 1770   2.749   0.285   1.580  0.4331 -0.4552 -0.6641
  107HFI     F6 1771   2.534   0.267   1.554  0.0813 -0.2566 -0.1732
  107HFI     H1 1772   2.838   0.065   1.418  0.0631 -1.0720  0.2804
  107HFI     H2 1773   2.642   0.053   1.627  1.2422 -1.6200 -0.3108
  108HFI     O1 1774   2.983   2.574   0.668 -0.1879  0.0921  0.2028
  108HFI     C1 1775   3.118   2.574   0.611 -0.7111  0.1319  0.4237
  108HFI     C2 1776   3.200   2.702   0.661 -0.2569  0.6824  0.3406
  108HFI     F1 1777   3.199   2.703   0.797 -0.4674 -0.8126 -0.0965
  108HFI     F2 1778   3.148   2.811   0.605 -0.4966 -0.5807  0.3746
  108HFI     F3 1779   3.323   2.705   0.625  0.0881  0.5374  0.1077
  108HFI     C3 1780   3.118   2.574   0.457  0.1782  0.0440 -0.2462
  108HFI     F4 1781   3.030   2.666   0.407 -0.5443  0.2655 -0.5095
  108HFI     F5 1782   3.084   2.448   0.407  0.0325 -0.5771 -0.0754
  108HFI     F6 1783   3.239   2.598   0.406  0.5319 -0.0143  0.2533
  108HFI     H1 1784   2.937   2.655   0.640 -0.3710 -0.6854 -1.8643
  108HFI     H2 1785   3.170   2.481   0.634 -1.6146 -0.2793  0.8179
  109HFI     O1 1786   1.964   2.174   2.700  0.3579 -0.2078 -0.3156
  109HFI     C1 1787   1.950   2.254   2.813 -0.4420 -0.0484 -0.0829
  109HFI     C2 1788   2.066   2.232   2.919 -0.4934  0.1036 -0.5152
  109HFI     F1 1789   2.076   2.102   2.942  0.2977  0.5161 -0.1996
  109HFI     F2 1790   2.044   2.306   3.034 -0.2720 -0.3276 -0.0272
  109HFI     F3 1791   2.188   2.267   2.870  0.0915  0.3626  1.0505
  109HFI     C3 1792   1.806   2.243   2.870  0.4268 -0.1561 -0.9329
  109HFI     F4 1793   1.784   2.352   2.942  0.0459 -0.1937  0.2172
  109HFI     F5 1794   1.785   2.139   2.943  0.2623 -0.0525  0.0912
  109HFI     F6 1795   1.709   2.244   2.773 -0.5736  0.4977  0.6329
  109HFI     H1 1796   2.058   2.177   2.672  0.3084 -0.3882 -0.5088
  109HFI     H2 1797   1.958   2.358   2.777  1.7753 -0.0248  0.4016
  110HFI     O1 1798   2.353   2.038   0.910  0.0043 -0.5758  0.1171
  110HFI     C1 1799   2.296   2.149   0.993 -0.0850  0.4576  0.2798
  110HFI     C2 1800   2.234   2.260   0.907 -0.8207  0.1578 -0.0103
  110HFI     F1 1801   2.136   2.197   0.842 -0.1975 -0.0426  0.3955
  110HFI     F2 1802   2.319   2.318   0.821  0.2037  0.3114  0.1105
  110HFI     F3 1803   2.163   2.352   0.982 -0.6309  0.8219 -0.9203
  110HFI     C3 1804   2.400   2.208   1.094 -0.3518  0.3453  0.5669
  110HFI     F4 1805   2.354   2.300   1.181  0.1911  0.7485 -0.5685
  110HFI     F5 1806   2.503   2.262   1.029 -0.0471 -0.0103  0.0169
  110HFI     F6 1807   2.451   2.103   1.164  0.6148  0.1263 -0.1539
  110HFI     H1 1808   2.438   2.067   0.873  0.5546  1.1188  2.5585
  110HFI     H2 1809   2.213   2.109   1.052  0.1117  1.3142  1.1458
  111HFI     O1 1810   2.111   2.148   1.280  0.0382 -0.3199 -0.3726
  111HFI     C1 1811   2.055   2.232   1.375 -0.2666 -0.5433  0.3307
  111HFI     C2 1812   2.029   2.154   1.504 -0.3948 -0.1008  0.2586
  111HFI     F1 1813   1.929   2.207   1.579  0.0502 -0.1967  0.0392
  111HFI     F2 1814   2.146   2.157   1.580 -0.5050  0.0446  0.4467
  111HFI     F3 1815   1.995   2.026   1.484 -0.3849 -0.8921  0.0477
  111HFI     C3 1816   1.932   2.320   1.329  0.0439 -0.6272  0.0101
  111HFI     F4 1817   1.827   2.247   1.289 -0.0751  0.6402  0.2427
  111HFI     F5 1818   1.969   2.384   1.216 -0.2948  0.0338 -0.1363
  111HFI     F6 1819   1.891   2.415   1.421  0.1620  0.5806 -0.0239
  111HFI     H1 1820   2.075   2.059   1.294  0.5608 -0.4858 -0.0776
  111HFI     H2 1821   2.130   2.309   1.398 -1.3854  1.1599 -1.5692
  112HFI     O1 1822   2.519   3.266   3.635  0.3325  0.1920  0.6341
  112HFI     C1 1823   2.560   3.206   3.506 -0.2102  0.0071 -0.5444
  112HFI     C2 1824   2.714   3.161   3.514  0.3936 -0.3900 -0.2833
  112HFI     F1 1825   2.725   3.086   3.620 -0.4590  0.3454 -0.2481
  112HFI     F2 1826   2.806   3.260   3.532 -0.0243  0.0967  0.3266
  112HFI     F3 1827   2.749   3.086   3.406 -0.4059 -0.2154 -1.0002
  112HFI     C3 1828   2.540   3.302   3.386 -0.3940 -0.9491  0.7987
  112HFI     F4 1829   2.598   3.416   3.396  0.0303 -0.2457 -0.5937
  112HFI     F5 1830   2.407   3.332   3.384 -0.2791 -0.1934  0.6874
  112HFI     F6 1831   2.578   3.245   3.265 -0.0925  0.6823 -0.0922
  112HFI     H1 1832   2.535   3.362   3.626  0.7896  0.1207  0.6409
  112HFI     H2 1833   2.512   3.109   3.493 -3.5792  1.2826  1.8055
  113HFI     O1 1834   2.869   0.529   1.430  0.3035  0.3745 -0.6233
  113HFI     C1 1835   3.011   0.520   1.404  0.2966 -0.3318  0.5882
  113HFI     C2 1836   3.038   0.411   1.298  0.4979  0.5045  0.7875
  113HFI     F1 1837   3.171   0.396   1.271 -0.5427  0.2375 -0.1403
  113HFI     F2 1838   2.981   0.446   1.177 -0.0231  0.0336 -0.0770
  113HFI     F3 1839   2.987   0.286   1.337 -0.2092  0.1743  0.1645
  113HFI     C3 1840   3.094   0.509   1.534  0.4142  0.8513 -0.3446
  113HFI     F4 1841   3.230   0.501   1.520  0.5695 -0.1606  0.3746
  113HFI     F5 1842   3.039   0.410   1.615  0.1265 -0.2054  0.2897
  113HFI     F6 1843   3.078   0.621   1.606 -0.0124  0.1427 -0.2725
  113HFI     H1 1844   2.852   0.468   1.504  0.3029  1.1817  0.0487
  113HFI     H2 1845   3.039   0.606   1.342  0.7150 -1.7832 -1.2693
  114HFI     O1 1846   3.115   0.103   2.311 -0.0675 -0.2272  0.0860
  114HFI     C1 1847   3.155   0.233   2.260  0.1105 -0.1705  0.3000
  114HFI     C2 1848   3.296   0.256   2.290  0.3736 -0.3993  0.4840
  114HFI     F1 1849   3.320   0.297   2.420  0.2612 -0.1084 -0.1043
  114HFI     F2 1850   3.352   0.354   2.209  0.4905 -0.2685 -0.7152
  114HFI     F3 1851   3.367   0.143   2.282  0.1288  0.0672  0.4215
  114HFI     C3 1852   3.061   0.350   2.306  0.1553  0.0982 -0.1241
  114HFI     F4 1853   2.943   0.339   2.246  0.2037 -0.2100  0.2221
  114HFI     F5 1854   3.117   0.470   2.293  0.0626 -0.4260  0.4484
  114HFI     F6 1855   3.037   0.340   2.438  0.6367  0.0321 -0.6396
  114HFI     H1 1856   3.185   0.038   2.293  0.3646  0.1534  0.3764
  114HFI     H2 1857   3.143   0.237   2.151  0.1814 -4.0328  0.0575
  115HFI     O1 1858   0.382   0.342   1.297 -0.0891 -0.8307  0.0998
  115HFI     C1 1859   0.475   0.382   1.403  0.4165  0.2362  0.5765
  115HFI     C2 1860   0.486   0.271   1.509 -0.8758  0.0279 -0.9281
  115HFI     F1 1861   0.381   0.280   1.594  0.0622  0.2354 -0.1344
  115HFI     F2 1862   0.592   0.298   1.582  0.1018  0.2736 -0.3979
  115HFI     F3 1863   0.497   0.149   1.461  0.0645 -0.3324  0.2499
  115HFI     C3 1864   0.465   0.526   1.451  0.8416 -0.7936 -0.3156
  115HFI     F4 1865   0.521   0.613   1.364 -0.8176  0.1100 -0.0915
  115HFI     F5 1866   0.527   0.551   1.571 -0.3260 -0.0634  0.0235
  115HFI     F6 1867   0.338   0.564   1.473 -0.2679  0.0286 -0.2776
  115HFI     H1 1868   0.295   0.332   1.338  1.1418 -2.1043  2.4901
  115HFI     H2 1869   0.576   0.375   1.362  1.0867  0.3415  2.1780
  116HFI     O1 1870   0.933   2.802   0.285 -0.3998  0.1626 -0.9150
  116HFI     C1 1871   1.033   2.884   0.357  0.4011  0.1630  0.3285
  116HFI     C2 1872   1.117   2.798   0.453 -0.0267  0.5923 -0.1888
  116HFI     F1 1873   1.177   2.691   0.389  0.5028  0.4064  0.0900
  116HFI     F2 1874   1.042   2.752   0.558 -0.1017 -0.4445  0.1986
  116HFI     F3 1875   1.220   2.869   0.508  0.0831 -0.2454  0.0048
  116HFI     C3 1876   0.969   3.008   0.419  0.4103 -0.0597 -0.0177
  116HFI     F4 1877   0.902   3.080   0.324 -0.3612  0.0433  0.3605
  116HFI     F5 1878   1.049   3.089   0.483 -0.0795 -0.1551 -0.0664
  116HFI     F6 1879   0.870   2.968   0.507  0.0001 -0.5286 -0.0722
  116HFI     H1 1880   0.868   2.762   0.345  0.7824  0.6835  0.7448
  116HFI     H2 1881   1.105   2.923   0.284  1.8204  0.1889  1.7171
  117HFI     O1 1882   1.878   0.479   2.758 -0.2147 -0.7729  0.7606
  117HFI     C1 1883   1.810   0.537   2.869  0.0314  0.3339  0.2219
  117HFI     C2 1884   1.819   0.445   2.992  0.3581  0.2739  0.2634
  117HFI     F1 1885   1.767   0.327   2.967 -0.0505 -0.0731  0.2790
  117HFI     F2 1886   1.770   0.498   3.109  0.1584  0.7145  0.0334
  117HFI     F3 1887   1.943   0.418   3.021 -0.2084 -0.1755 -0.1878
  117HFI     C3 1888   1.671   0.584   2.837 -0.1713 -0.0432 -0.0505
  117HFI     F4 1889   1.576   0.495   2.869 -0.6729  0.1044 -1.2822
  117HFI     F5 1890   1.661   0.616   2.704 -0.4933  0.3651 -0.1923
  117HFI     F6 1891   1.633   0.698   2.906  0.2743 -1.0469  0.0330
  117HFI     H1 1892   1.832   0.517   2.682 -0.5031  0.6321  1.6353
  117HFI     H2 1893   1.862   0.627   2.907  1.5219 -1.0850  1.6322
  118HFI     O1 1894   0.104   0.783   3.394  0.1556 -0.1627  0.2039
  118HFI     C1 1895   0.169   0.646   3.378 -0.5865 -0.3442  0.4257
  118HFI     C2 1896   0.322   0.664   3.345  0.2956 -0.1047  0.1161
  118HFI     F1 1897   0.394   0.545   3.353  0.0297 -0.2249 -0.3060
  118HFI     F2 1898   0.379   0.751   3.434  0.6304  0.0439 -0.5026
  118HFI     F3 1899   0.348   0.713   3.218  0.5387  0.1271 -0.0248
  118HFI     C3 1900   0.090   0.575   3.266 -0.8972  0.2936 -0.2142
  118HFI     F4 1901  -0.031   0.534   3.313 -0.3294 -0.0465  0.1191
  118HFI     F5 1902   0.157   0.463   3.223 -0.5197  0.2349  0.2030
  118HFI     F6 1903   0.076   0.659   3.165  0.2941 -0.8002  0.0190
  118HFI     H1 1904   0.025   0.795   3.339 -1.2959  2.2032  2.6764
  118HFI     H2 1905   0.172   0.589   3.472  0.9777  0.9002  1.1542
  119HFI     O1 1906   0.266   1.621   0.364  0.0392  0.3263  0.0851
  119HFI     C1 1907   0.286   1.740   0.451 -0.4294  0.1047  0.2242
  119HFI     C2 1908   0.255   1.871   0.376  0.0590 -0.3766  0.7853
  119HFI     F1 1909   0.325   1.874   0.257  0.3135 -0.8616 -0.5875
  119HFI     F2 1910   0.277   1.981   0.443  0.3025 -0.5663  0.2073
  119HFI     F3 1911   0.119   1.875   0.350  0.1783  0.0905 -0.4466
  119HFI     C3 1912   0.432   1.751   0.507  0.5982  0.2042  0.6626
  119HFI     F4 1913   0.519   1.813   0.414 -0.0662  0.2596  0.0946
  119HFI     F5 1914   0.483   1.624   0.521  0.4222 -0.1221 -0.7533
  119HFI     F6 1915   0.453   1.821   0.617  0.0562  0.5258  0.0525
  119HFI     H1 1916   0.231   1.642   0.276 -1.2378 -0.7049  0.3239
  119HFI     H2 1917   0.214   1.731   0.533  0.5421  1.2270  1.2014
  120HFI     O1 1918   2.807   0.077   2.438 -0.2567  0.7679 -0.3206
  120HFI     C1 1919   2.763  -0.055   2.396 -0.0570 -0.1523 -0.3555
  120HFI     C2 1920   2.883  -0.141   2.350 -0.2048  0.7503  0.1364
  120HFI     F1 1921   2.844  -0.275   2.345 -0.3634  0.1416 -0.2620
  120HFI     F2 1922   2.981  -0.126   2.444  0.1429  0.1753 -0.4482
  120HFI     F3 1923   2.939  -0.112   2.232 -0.0715 -0.6016  0.0615
  120HFI     C3 1924   2.655  -0.036   2.286  0.0373  0.1951  0.5098
  120HFI     F4 1925   2.702   0.051   2.190 -1.1595 -0.1694  0.0415
  120HFI     F5 1926   2.544   0.009   2.340  0.5920 -0.1967  0.1741
  120HFI     F6 1927   2.616  -0.141   2.219  0.0911  0.2664 -0.0341
  120HFI     H1 1928   2.901   0.066   2.461 -0.3107  0.2346 -0.3439
  120HFI     H2 1929   2.725  -0.111   2.482 -1.8581  0.8579 -0.4794
  121HFI     O1 1930   0.755   1.297   2.404 -0.5285 -0.4108 -0.2450
  121HFI     C1 1931   0.696   1.382   2.307 -0.5050 -0.2817 -0.0347
  121HFI     C2 1932   0.745   1.523   2.324 -0.1656 -0.6596  0.4281
  121HFI     F1 1933   0.734   1.546   2.458 -0.3597  0.0875 -0.3422
  121HFI     F2 1934   0.666   1.607   2.253 -0.1252  0.0498 -0.2342
  121HFI     F3 1935   0.868   1.531   2.277 -0.2847  0.2321  0.1133
  121HFI     C3 1936   0.542   1.362   2.292 -0.5149 -0.0429 -0.3995
  121HFI     F4 1937   0.492   1.415   2.175  0.2978  0.4077  0.0351
  121HFI     F5 1938   0.471   1.399   2.399 -0.1884  0.8646 -0.0278
  121HFI     F6 1939   0.537   1.230   2.274  0.3161 -0.4734  0.2181
  121HFI     H1 1940   0.765   1.209   2.362 -2.4419 -0.5589 -0.4176
  121HFI     H2 1941   0.729   1.349   2.208 -0.5076  0.1003 -0.1628
  122HFI     O1 1942   0.327   2.518   0.416 -0.1236 -0.5585  0.5366
  122HFI     C1 1943   0.289   2.393   0.346 -0.5377 -0.5789 -0.3744
  122HFI     C2 1944   0.163   2.334   0.404 -0.0257  0.1089  0.1001
  122HFI     F1 1945   0.170   2.306   0.537 -0.3812 -0.4101 -0.3338
  122HFI     F2 1946   0.125   2.225   0.334  0.0534  0.4526 -0.1975
  122HFI     F3 1947   0.063   2.422   0.389 -0.2927  0.1535  0.4407
  122HFI     C3 1948   0.408   2.302   0.347  0.3711 -1.1134 -0.2114
  122HFI     F4 1949   0.445   2.271   0.470 -0.1799 -0.2733 -0.6912
  122HFI     F5 1950   0.515   2.374   0.296 -0.1309 -0.3981  0.1361
  122HFI     F6 1951   0.381   2.189   0.276 -0.0669 -0.6360  0.2973
  122HFI     H1 1952   0.367   2.489   0.500  0.3501 -2.3708 -0.2842
  122HFI     H2 1953   0.275   2.421   0.241  1.2280  2.4170  0.1308
  123HFI     O1 1954   2.824   2.399   2.462  0.1372  0.4508  0.3033
  123HFI     C1 1955   2.827   2.289   2.367 -0.4213 -0.1768  0.4469
  123HFI     C2 1956   2.931   2.323   2.258 -0.5396 -0.0622 -0.3811
  123HFI     F1 1957   2.940   2.215   2.173 -0.3113  0.2823  0.2657
  123HFI     F2 1958   3.058   2.340   2.316 -0.1939 -0.2971 -0.2488
  123HFI     F3 1959   2.893   2.437   2.192  0.0083  0.5479  0.1012
  123HFI     C3 1960   2.690   2.247   2.317  0.0372 -0.2248  0.0026
  123HFI     F4 1961   2.610   2.185   2.412 -0.0575 -0.1353  0.1614
  123HFI     F5 1962   2.687   2.157   2.222 -0.1480  0.0690 -0.2134
  123HFI     F6 1963   2.620   2.358   2.275 -0.3787  0.2519  0.0143
  123HFI     H1 1964   2.769   2.470   2.424  1.0426 -0.1371 -2.2276
  123HFI     H2 1965   2.864   2.198   2.418 -0.5331 -1.0856 -1.0626
  124HFI     O1 1966   0.004   1.775   0.910 -0.3528  0.4798 -0.2880
  124HFI     C1 1967  -0.084   1.859   0.988 -0.1881 -0.1803  0.3821
  124HFI     C2 1968  -0.030   2.011   0.972 -0.0624 -0.2627  0.0990
  124HFI     F1 1969   0.090   2.020   1.022  0.8095 -0.2509  0.4419
  124HFI     F2 1970  -0.117   2.101   1.025 -0.5547 -0.2454 -0.2104
  124HFI     F3 1971  -0.014   2.040   0.843  0.6868 -0.3106  0.2992
  124HFI     C3 1972  -0.078   1.808   1.138  0.4469 -0.7983  0.5402
  124HFI     F4 1973   0.047   1.816   1.190  0.0846  0.0371  0.3823
  124HFI     F5 1974  -0.116   1.678   1.145  0.2308 -0.3346  0.0491
  124HFI     F6 1975  -0.152   1.883   1.221 -0.1527  0.0256 -0.0804
  124HFI     H1 1976   0.100   1.786   0.922  0.1603 -2.0945 -1.6012
  124HFI     H2 1977  -0.185   1.845   0.947  0.5444 -1.6098 -0.9920
  125HFI     O1 1978   3.266   1.741   2.458  0.1501  0.0803  0.1385
  125HFI     C1 1979   3.270   1.880   2.409  0.5875 -0.0898  0.2720
  125HFI     C2 1980   3.194   1.973   2.503  0.0005 -0.0832  1.0659
  125HFI     F1 1981   3.228   2.103   2.486 -0.4551 -0.5822  0.4090
  125HFI     F2 1982   3.214   1.927   2.632  0.2632  0.0164 -0.2137
  125HFI     F3 1983   3.064   1.959   2.471  0.0073  0.3068  0.1746
  125HFI     C3 1984   3.221   1.893   2.259 -0.7164 -0.2529 -0.1709
  125HFI     F4 1985   3.304   1.825   2.179  0.4404 -0.1192 -0.0262
  125HFI     F5 1986   3.218   2.024   2.216  0.3722 -0.3613 -0.2725
  125HFI     F6 1987   3.090   1.849   2.245 -0.0587  0.2946  0.7711
  125HFI     H1 1988   3.176   1.706   2.466 -0.1932  0.9629  0.1753
  125HFI     H2 1989   3.373   1.915   2.423  0.5890 -1.0175  2.8603
  126HFI     O1 1990   0.726   1.710   3.240 -0.0541 -0.2685 -0.0196
  126HFI     C1 1991   0.635   1.751   3.350  0.3216 -0.3228  0.0515
  126HFI     C2 1992   0.483   1.750   3.300 -0.2769  0.1361 -0.5477
  126HFI     F1 1993   0.410   1.769   3.403  0.0234  0.0633 -0.0310
  126HFI     F2 1994   0.449   1.631   3.232 -0.1672 -0.1704 -0.1939
  126HFI     F3 1995   0.470   1.843   3.204  0.1742 -0.0278 -0.1729
  126HFI     C3 1996   0.678   1.880   3.430 -0.0259 -0.2517 -0.0382
  126HFI     F4 1997   0.659   1.991   3.361  0.7492  0.0028 -0.0344
  126HFI     F5 1998   0.808   1.874   3.466 -0.3264 -0.1788  0.2802
  126HFI     F6 1999   0.599   1.887   3.542 -0.0342  0.1158  0.4771
  126HFI     H1 2000   0.697   1.730   3.150  0.3021 -1.2103 -0.3454
  126HFI     H2 2001   0.627   1.669   3.422 -1.5750  0.2759  0.5365
  127HFI     O1 2002   0.487   1.752   2.458  0.3106  0.2452 -0.2241
  127HFI     C1 2003   0.343   1.744   2.443  0.3080 -0.5524  0.0127
  127HFI     C2 2004   0.289   1.777   2.308 -0.9229 -0.2190  0.3020
  127HFI     F1 2005   0.157   1.811   2.305 -0.3911  0.1762  0.0840
  127HFI     F2 2006   0.304   1.670   2.221 -0.4037 -0.5303  0.2670
  127HFI     F3 2007   0.355   1.886   2.253 -0.3191  0.2608 -0.0993
  127HFI     C3 2008   0.286   1.840   2.556 -0.0420 -0.2301 -0.5841
  127HFI     F4 2009   0.333   1.813   2.683  0.3326  0.2346  0.3344
  127HFI     F5 2010   0.153   1.830   2.562  0.6106  0.7686  0.0390
  127HFI     F6 2011   0.309   1.966   2.524 -0.1571 -0.7220 -0.4821
  127HFI     H1 2012   0.511   1.821   2.394  0.7688  0.0882 -0.2234
  127HFI     H2 2013   0.315   1.644   2.478  2.9567 -0.6350  2.0497
  128HFI     O1 2014   2.386   0.836   3.244 -0.3703  0.2657 -0.1808
  128HFI     C1 2015   2.457   0.807   3.364 -0.6789  0.1755 -0.5071
  128HFI     C2 2016   2.393   0.887   3.477 -0.2181 -0.4780 -0.2059
  128HFI     F1 2017   2.420   1.020   3.453 -0.0248 -0.3191 -0.3498
  128HFI     F2 2018   2.434   0.855   3.599 -0.0276 -0.5420  0.2737
  128HFI     F3 2019   2.257   0.873   3.483 -0.2437 -0.0808 -0.4519
  128HFI     C3 2020   2.613   0.823   3.333 -0.1483  0.1170 -0.2968
  128HFI     F4 2021   2.681   0.774   3.432 -0.2722 -1.2287 -0.1164
  128HFI     F5 2022   2.656   0.954   3.306 -0.1402 -0.4762  0.1518
  128HFI     F6 2023   2.646   0.751   3.221  0.8219 -0.4618  0.6592
  128HFI     H1 2024   2.418   0.918   3.202  2.8961  0.3959  2.3652
  128HFI     H2 2025   2.437   0.703   3.389 -0.4672 -0.6695 -3.6869
  129HFI     O1 2026   2.737   1.424   2.204 -0.1217  0.2285 -0.5051
  129HFI     C1 2027   2.802   1.441   2.327 -0.1267 -0.2698 -0.5028
  129HFI     C2 2028   2.872   1.581   2.327 -0.2366  0.7297 -0.3296
  129HFI     F1 2029   2.790   1.686   2.333  0.3062 -0.1949 -0.1619
  129HFI     F2 2030   2.964   1.605   2.230 -0.4054 -0.6085  0.1244
  129HFI     F3 2031   2.944   1.587   2.446 -0.0279 -0.0213 -0.2662
  129HFI     C3 2032   2.893   1.319   2.350  0.7891  0.5137 -1.0171
  129HFI     F4 2033   2.818   1.207   2.353 -0.1172  0.3145 -0.2312
  129HFI     F5 2034   2.956   1.324   2.470 -0.2988 -0.4734 -0.3688
  129HFI     F6 2035   2.988   1.305   2.253 -0.5922 -0.4525  0.4967
  129HFI     H1 2036   2.731   1.332   2.174  1.5354 -0.0137 -0.1456
  129HFI     H2 2037   2.733   1.436   2.413  0.6848 -0.6161  0.1383
  130HFI     O1 2038   2.614   1.273   3.404 -0.3539  0.2719 -0.6148
  130HFI     C1 2039   2.662   1.414   3.398  0.3582  0.1325  0.7886
  130HFI     C2 2040   2.815   1.416   3.392  0.5474 -0.5210  0.3178
  130HFI     F1 2041   2.859   1.359   3.278 -0.3615 -0.3201  0.6198
  130HFI     F2 2042   2.879   1.355   3.493 -0.1215  0.3145  0.0839
  130HFI     F3 2043   2.860   1.540   3.396  0.1227 -0.0024  0.1286
  130HFI     C3 2044   2.587   1.504   3.501 -0.0532  0.5357 -0.3958
  130HFI     F4 2045   2.456   1.503   3.466 -0.0717 -0.0407  0.3023
  130HFI     F5 2046   2.622   1.634   3.504  0.2747 -0.3421  0.2267
  130HFI     F6 2047   2.601   1.452   3.622 -0.3085 -0.0952  0.5945
  130HFI     H1 2048   2.544   1.252   3.469  0.5574 -1.5839 -0.2154
  130HFI     H2 2049   2.635   1.448   3.297  0.7167 -0.5360  0.4583
  131HFI     O1 2050   0.759   2.452   0.155  0.1542 -0.2534 -0.1511
  131HFI     C1 2051   0.733   2.390   0.029 -0.2719 -0.7166  0.4885
  131HFI     C2 2052   0.599   2.435  -0.047 -1.0206 -0.5865 -0.2384
  131HFI     F1 2053   0.604   2.566  -0.063  0.2315  0.2570  0.3369
  131HFI     F2 2054   0.488   2.404   0.031  0.1054 -0.4091  0.2598
  131HFI     F3 2055   0.580   2.385  -0.165  0.5785 -0.2197  0.1553
  131HFI     C3 2056   0.750   2.233   0.033  0.5746 -0.1920 -0.0758
  131HFI     F4 2057   0.771   2.176  -0.087  0.0316  0.4313 -0.1023
  131HFI     F5 2058   0.630   2.176   0.079 -0.1164  0.3619  0.3290
  131HFI     F6 2059   0.856   2.193   0.111 -0.3852  0.2537  0.9072
  131HFI     H1 2060   0.683   2.455   0.215  2.3924  0.0834  2.7376
  131HFI     H2 2061   0.815   2.413  -0.041  0.7750 -0.3606  1.8103
  132HFI     O1 2062   1.314   1.949   3.676  0.1119 -0.0889  0.6710
  132HFI     C1 2063   1.259   2.071   3.620 -0.0032 -0.6742  0.6787
  132HFI     C2 2064   1.101   2.059   3.621  0.1209 -0.3553 -0.5034
  132HFI     F1 2065   1.051   1.954   3.561  0.2327 -0.1111  0.1347
  132HFI     F2 2066   1.045   2.173   3.569 -0.4033 -0.1052  0.3030
  132HFI     F3 2067   1.067   2.048   3.751  0.4191 -0.7708  0.1177
  132HFI     C3 2068   1.310   2.101   3.482 -0.0754  0.5320  0.0571
  132HFI     F4 2069   1.297   2.224   3.431  0.0808 -0.3664 -0.1063
  132HFI     F5 2070   1.266   2.016   3.385  0.4141  0.3785 -0.0338
  132HFI     F6 2071   1.439   2.075   3.485  0.1286 -0.1987 -0.3103
  132HFI     H1 2072   1.272   1.876   3.627 -0.0740  0.2980  0.2558
  132HFI     H2 2073   1.288   2.148   3.694  1.3992  0.0380 -0.5841
  133HFI     O1 2074   0.601   2.930   2.441  0.1462 -0.5694 -0.0263
  133HFI     C1 2075   0.635   2.830   2.344  0.1046  0.4396  0.0980
  133HFI     C2 2076   0.518   2.721   2.336  0.1524  0.0059 -0.2575
  133HFI     F1 2077   0.506   2.695   2.208 -0.3460  0.2437 -0.3636
  133HFI     F2 2078   0.401   2.762   2.383  0.0405 -0.7355  0.3282
  133HFI     F3 2079   0.550   2.598   2.394  0.5372 -0.6940 -0.3214
  133HFI     C3 2080   0.778   2.780   2.359 -0.3217 -0.5630  0.2851
  133HFI     F4 2081   0.794   2.708   2.469 -0.3593  0.2885  0.5394
  133HFI     F5 2082   0.869   2.875   2.368 -0.7469  0.1787  0.0164
  133HFI     F6 2083   0.815   2.699   2.253 -0.1437 -0.8344  0.3728
  133HFI     H1 2084   0.505   2.932   2.454 -0.1043 -0.7545 -1.7235
  133HFI     H2 2085   0.639   2.884   2.249  1.3223  3.6726  1.8815
  134HFI     O1 2086   1.394   2.669   3.787 -0.0362  0.2825 -0.0245
  134HFI     C1 2087   1.261   2.607   3.792  0.9027  0.2734 -0.5627
  134HFI     C2 2088   1.249   2.482   3.692 -0.2496 -0.0896  0.1559
  134HFI     F1 2089   1.262   2.525   3.564  0.0528  0.2522 -0.4008
  134HFI     F2 2090   1.125   2.426   3.711 -0.1385 -0.1747 -0.0728
  134HFI     F3 2091   1.349   2.390   3.712  0.2625 -0.2308 -0.5717
  134HFI     C3 2092   1.153   2.712   3.768  0.3610  0.1941  0.8264
  134HFI     F4 2093   1.170   2.771   3.648 -0.5599 -0.3466 -0.0483
  134HFI     F5 2094   1.164   2.812   3.863  0.3247 -0.4963 -0.4220
  134HFI     F6 2095   1.031   2.667   3.776  0.1066 -0.2581 -0.4250
  134HFI     H1 2096   1.387   2.714   3.701 -0.1026  1.8513  0.8001
  134HFI     H2 2097   1.245   2.570   3.894  1.1283  2.5049  0.3058
  135HFI     O1 2098   2.316   1.433   0.625 -0.2107  0.4902 -0.4129
  135HFI     C1 2099   2.373   1.537   0.706  0.0680  0.6320 -0.1169
  135HFI     C2 2100   2.377   1.677   0.632  0.1983  0.1208  0.6665
  135HFI     F1 2101   2.394   1.779   0.720 -0.8097  0.5648  0.8746
  135HFI     F2 2102   2.264   1.708   0.569 -0.1760  0.1045 -0.0340
  135HFI     F3 2103   2.475   1.685   0.532 -0.5902  0.2100  0.2100
  135HFI     C3 2104   2.507   1.503   0.766  0.0368  0.6888 -0.4011
  135HFI     F4 2105   2.489   1.398   0.850  0.3738 -0.1325 -0.7305
  135HFI     F5 2106   2.548   1.601   0.849  0.1116 -0.4693 -0.5243
  135HFI     F6 2107   2.609   1.474   0.678  0.1681  0.6590  0.1433
  135HFI     H1 2108   2.376   1.417   0.549  0.3958  2.0827 -0.2837
  135HFI     H2 2109   2.311   1.557   0.795  0.7673  0.1742  0.4851
  136HFI     O1 2110   1.253   1.576   2.481 -0.0964  0.4337 -0.3329
  136HFI     C1 2111   1.308   1.650   2.368 -0.6765  0.0782  1.1746
  136HFI     C2 2112   1.197   1.722   2.283 -0.2141  0.0554 -0.1535
  136HFI     F1 2113   1.250   1.815   2.199  0.1051  0.4519 -0.4103
  136HFI     F2 2114   1.118   1.793   2.358 -0.0031  0.4154  0.0039
  136HFI     F3 2115   1.131   1.637   2.205  0.3353  0.1367 -0.0705
  136HFI     C3 2116   1.397   1.568   2.282 -0.2781 -0.4616 -0.1453
  136HFI     F4 2117   1.327   1.473   2.214  0.2591 -0.4460  0.1418
  136HFI     F5 2118   1.485   1.499   2.357 -0.1793  0.0233  0.0472
  136HFI     F6 2119   1.474   1.642   2.203 -0.1474  0.1131  0.0799
  136HFI     H1 2120   1.274   1.481   2.484 -0.3719  0.3371 -1.5735
  136HFI     H2 2121   1.369   1.727   2.416 -0.3733  2.2428 -2.4942
  137HFI     O1 2122   1.092   1.263   0.612  0.1667 -0.1985  0.3769
  137HFI     C1 2123   1.239   1.254   0.600  0.4541  0.0948 -0.2249
  137HFI     C2 2124   1.275   1.196   0.463 -0.1824  0.4430  0.5569
  137HFI     F1 2125   1.206   1.259   0.359  0.3596 -0.1672 -0.2412
  137HFI     F2 2126   1.256   1.065   0.465 -0.3120 -0.5190  0.2052
  137HFI     F3 2127   1.405   1.215   0.437  0.3509 -0.0483  0.1224
  137HFI     C3 2128   1.312   1.190   0.725  0.0005  0.1537 -0.4725
  137HFI     F4 2129   1.319   1.277   0.830  0.2941 -0.4065 -0.0987
  137HFI     F5 2130   1.444   1.154   0.702  0.0430 -0.0257  0.7115
  137HFI     F6 2131   1.251   1.078   0.762 -0.2016 -0.2439  0.1986
  137HFI     H1 2132   1.053   1.207   0.544 -0.8751 -0.4334  1.1553
  137HFI     H2 2133   1.286   1.352   0.598 -0.8810  0.8429  2.4307
  138HFI     O1 2134   1.003   0.923   0.692 -0.1277  0.4615  0.0985
  138HFI     C1 2135   0.971   0.780   0.683  0.5574 -0.4950 -0.0332
  138HFI     C2 2136   1.087   0.703   0.606  0.0155 -0.2480 -0.2096
  138HFI     F1 2137   1.093   0.724   0.469 -0.1790  0.3993 -0.3273
  138HFI     F2 2138   1.076   0.571   0.624  0.2016 -0.3903  0.0573
  138HFI     F3 2139   1.205   0.736   0.658  0.6590  0.6947  0.0364
  138HFI     C3 2140   0.826   0.752   0.635 -0.1461 -0.1577 -0.8484
  138HFI     F4 2141   0.740   0.822   0.721 -0.3848 -0.1217 -0.3242
  138HFI     F5 2142   0.803   0.618   0.649  0.8418 -0.3295  0.2991
  138HFI     F6 2143   0.804   0.794   0.502  0.1741 -0.3991 -0.1138
  138HFI     H1 2144   1.078   0.933   0.753 -0.1149 -1.4739  0.4452
  138HFI     H2 2145   0.967   0.741   0.785 -2.0796  1.9102  0.8192
  139HFI     O1 2146   1.785   0.890   1.313  0.7074  0.5745 -0.7074
  139HFI     C1 2147   1.909   0.870   1.397 -0.5351  0.7606 -0.2112
  139HFI     C2 2148   1.914   0.968   1.513 -1.0589  0.4964  0.4206
  139HFI     F1 2149   1.806   0.945   1.583  0.9956  0.0018  0.1100
  139HFI     F2 2150   1.907   1.101   1.475  0.2745 -0.1908  0.4636
  139HFI     F3 2151   2.022   0.952   1.596  0.5344  0.2618 -0.2162
  139HFI     C3 2152   2.042   0.872   1.311 -0.0152  0.3835 -0.0333
  139HFI     F4 2153   2.048   0.751   1.243 -0.0692 -0.0416 -0.2557
  139HFI     F5 2154   2.156   0.886   1.374 -0.3596  0.2149  0.0740
  139HFI     F6 2155   2.041   0.972   1.222  0.0982 -0.0371  0.3899
  139HFI     H1 2156   1.774   0.986   1.306 -0.0399  0.4852 -0.8662
  139HFI     H2 2157   1.912   0.770   1.442  1.2100  0.2653 -1.3509
  140HFI     O1 2158   2.282   3.106   2.341 -0.0824  0.7647 -0.0883
  140HFI     C1 2159   2.318   2.988   2.269 -0.1057 -0.1905 -0.2496
  140HFI     C2 2160   2.188   2.901   2.282 -0.1562  0.9782  0.5013
  140HFI     F1 2161   2.206   2.779   2.231  0.8411  0.6018  0.4672
  140HFI     F2 2162   2.086   2.964   2.215 -0.0063 -0.6070 -0.1449
  140HFI     F3 2163   2.147   2.886   2.411 -0.0029 -0.3983  0.3035
  140HFI     C3 2164   2.445   2.928   2.329 -0.4288 -0.1858 -1.1689
  140HFI     F4 2165   2.439   2.916   2.467 -0.5775 -0.0757 -0.1705
  140HFI     F5 2166   2.550   3.006   2.299 -0.2506  0.2409 -0.6957
  140HFI     F6 2167   2.475   2.805   2.274  0.1543  0.4456  0.1961
  140HFI     H1 2168   2.190   3.124   2.317 -0.8393 -0.8437  1.5217
  140HFI     H2 2169   2.336   3.013   2.164 -2.5364 -1.4460 -1.0057
  141HFI     O1 2170   1.946   1.338   3.443 -0.4821  0.5925 -0.5398
  141HFI     C1 2171   1.982   1.265   3.557 -0.1871  0.2851  0.3376
  141HFI     C2 2172   2.123   1.194   3.545  0.5013 -0.8201 -0.0362
  141HFI     F1 2173   2.223   1.285   3.519  0.1409 -0.5041 -0.3852
  141HFI     F2 2174   2.119   1.111   3.436  0.1102 -0.1868 -0.6859
  141HFI     F3 2175   2.156   1.121   3.656  0.1930  0.1220  0.3278
  141HFI     C3 2176   1.865   1.169   3.600 -0.2113  0.1882 -0.1355
  141HFI     F4 2177   1.746   1.226   3.581  0.2439  0.0661  0.4900
  141HFI     F5 2178   1.873   1.125   3.727 -0.3600 -0.2573 -0.5043
  141HFI     F6 2179   1.868   1.060   3.521  0.1537 -0.0046 -0.2702
  141HFI     H1 2180   1.852   1.360   3.449 -0.3432  0.9935  0.2629
  141HFI     H2 2181   2.002   1.327   3.645 -1.2944 -0.5912  1.2272
  142HFI     O1 2182   2.538   1.104   1.460  0.4054  0.2431  0.5177
  142HFI     C1 2183   2.480   1.224   1.397  0.2830 -0.2776  0.5676
  142HFI     C2 2184   2.369   1.280   1.487  0.5295  0.1974  0.4143
  142HFI     F1 2185   2.302   1.173   1.534 -0.0655 -0.3141  0.5502
  142HFI     F2 2186   2.280   1.355   1.422  0.3479  0.4293 -0.1669
  142HFI     F3 2187   2.419   1.347   1.595 -0.4334  0.2129  0.6167
  142HFI     C3 2188   2.441   1.220   1.242 -0.1420  0.4591 -0.3187
  142HFI     F4 2189   2.419   1.341   1.181  0.0756  0.0136  0.5331
  142HFI     F5 2190   2.339   1.142   1.223  0.0859  0.6073 -0.3516
  142HFI     F6 2191   2.544   1.157   1.173 -0.0467 -0.2103  0.2478
  142HFI     H1 2192   2.587   1.133   1.539  0.3197  0.7323  0.3925
  142HFI     H2 2193   2.557   1.302   1.394 -1.0209  0.9787 -1.7740
  143HFI     O1 2194   1.689   3.078   1.367 -0.6428 -0.5583  0.1997
  143HFI     C1 2195   1.625   3.208   1.374 -0.6651 -0.0003  0.1470
  143HFI     C2 2196   1.621   3.253   1.524  0.4640  0.2299  0.6149
  143HFI     F1 2197   1.743   3.274   1.578  0.2221 -0.4904  0.4706
  143HFI     F2 2198   1.567   3.152   1.595 -0.2189  0.3182  0.6040
  143HFI     F3 2199   1.549   3.358   1.543  0.5421 -0.1805  0.2492
  143HFI     C3 2200   1.481   3.220   1.300 -0.4067 -0.6275 -0.3046
  143HFI     F4 2201   1.479   3.173   1.169  0.3315 -0.0204  0.7727
  143HFI     F5 2202   1.436   3.344   1.272  0.7103  0.2165  0.5833
  143HFI     F6 2203   1.384   3.149   1.371 -0.0756  0.4168  0.5248
  143HFI     H1 2204   1.637   3.014   1.419 -1.9555  0.8715  0.6748
  143HFI     H2 2205   1.687   3.278   1.316 -0.0086  0.5214  1.4512
  144HFI     O1 2206   1.710   0.453   3.600 -0.0665  0.1456  0.0828
  144HFI     C1 2207   1.703   0.475   3.748 -0.5367  0.3714  0.0358
  144HFI     C2 2208   1.744   0.625   3.778 -0.1347 -0.5673  0.9291
  144HFI     F1 2209   1.844   0.655   3.698 -0.2115 -0.1255  0.4674
  144HFI     F2 2210   1.787   0.654   3.900  0.3206 -0.2146  0.7707
  144HFI     F3 2211   1.644   0.710   3.749 -0.4369  0.2313 -0.4542
  144HFI     C3 2212   1.791   0.376   3.826  0.0784 -1.1589  0.1961
  144HFI     F4 2213   1.757   0.383   3.960 -0.1705  0.0836  0.0951
  144HFI     F5 2214   1.921   0.403   3.808 -0.0594 -0.0274  0.0269
  144HFI     F6 2215   1.771   0.249   3.786  0.7711  0.6849  0.2024
  144HFI     H1 2216   1.743   0.533   3.554 -1.6936  0.5085 -0.5183
  144HFI     H2 2217   1.600   0.459   3.785 -1.5502  1.7696 -2.1334
  145HFI     O1 2218   1.969   1.333   0.172 -0.0344  0.3227  0.3427
  145HFI     C1 2219   1.873   1.376   0.277 -0.2671 -0.4024 -0.3861
  145HFI     C2 2220   1.958   1.433   0.396 -0.1570  0.5688 -0.1686
  145HFI     F1 2221   1.884   1.467   0.503  0.4311 -0.3435  0.4805
  145HFI     F2 2222   2.024   1.539   0.359 -0.3447 -0.1965  0.4705
  145HFI     F3 2223   2.046   1.345   0.440  1.2560 -0.3044  0.2241
  145HFI     C3 2224   1.788   1.250   0.321 -0.2118 -0.6993  0.1517
  145HFI     F4 2225   1.700   1.279   0.423  0.0516 -0.4261 -0.0142
  145HFI     F5 2226   1.868   1.151   0.368  0.1966 -0.3284  0.3606
  145HFI     F6 2227   1.713   1.197   0.228  0.6150  0.8346  0.2258
  145HFI     H1 2228   1.940   1.247   0.138  2.0088 -0.4301  0.4650
  145HFI     H2 2229   1.805   1.458   0.253  2.5861  1.8327 -1.0524
  146HFI     O1 2230   1.071   1.466   2.808  0.3348  0.2738 -0.4638
  146HFI     C1 2231   1.081   1.325   2.785  0.0565 -0.1278  0.7034
  146HFI     C2 2232   1.220   1.274   2.761 -0.4343  0.1901  0.3748
  146HFI     F1 2233   1.295   1.297   2.873  0.4541 -0.3074  0.3148
  146HFI     F2 2234   1.280   1.344   2.662 -0.5433  0.0855 -0.2616
  146HFI     F3 2235   1.230   1.136   2.731  0.2785 -0.1961 -0.2601
  146HFI     C3 2236   0.991   1.270   2.674  0.7514 -0.4405  0.6154
  146HFI     F4 2237   0.963   1.140   2.680 -0.5955  0.0245 -0.1243
  146HFI     F5 2238   1.039   1.301   2.552  0.2411  0.5320  0.1547
  146HFI     F6 2239   0.872   1.338   2.685  0.0267  0.1278  0.3565
  146HFI     H1 2240   0.982   1.494   2.783 -0.4533 -0.7647  1.1342
  146HFI     H2 2241   1.058   1.268   2.876  0.3089 -0.3602  0.6241
  147HFI     O1 2242   0.292   2.475   2.316 -0.5757 -0.1614  0.1475
  147HFI     C1 2243   0.185   2.393   2.367  0.1132  1.0051  0.1829
  147HFI     C2 2244   0.205   2.246   2.314 -0.0888  0.0049 -0.3184
  147HFI     F1 2245   0.102   2.158   2.354 -0.5830 -0.4258  0.5082
  147HFI     F2 2246   0.321   2.194   2.376  0.6981  0.2367  0.1115
  147HFI     F3 2247   0.230   2.243   2.180 -0.3771 -0.1513  0.2683
  147HFI     C3 2248   0.047   2.450   2.346 -0.1833 -0.6247  0.2408
  147HFI     F4 2249  -0.038   2.397   2.440 -0.2265  0.4740 -0.6782
  147HFI     F5 2250   0.000   2.415   2.221 -0.2045  0.4100  0.2320
  147HFI     F6 2251   0.052   2.584   2.351  0.3233 -0.2371  0.4811
  147HFI     H1 2252   0.380   2.434   2.329  0.1281  0.8429 -1.3578
  147HFI     H2 2253   0.198   2.391   2.476 -2.0875 -0.1092  0.4447
  148HFI     O1 2254   0.990   0.290   0.423 -0.2402  0.4213  0.1921
  148HFI     C1 2255   0.879   0.195   0.383 -0.4507 -0.1797 -0.1353
  148HFI     C2 2256   0.749   0.274   0.371  0.3862 -0.1018 -0.1268
  148HFI     F1 2257   0.638   0.201   0.332 -0.0515 -0.1351 -0.5297
  148HFI     F2 2258   0.762   0.359   0.279  0.1353  0.0974 -0.0185
  148HFI     F3 2259   0.718   0.348   0.478  0.0761 -0.2752  0.1740
  148HFI     C3 2260   0.861   0.094   0.500 -0.2892 -0.6090  0.6295
  148HFI     F4 2261   0.970   0.024   0.513 -0.0780  0.2249  0.4636
  148HFI     F5 2262   0.757   0.007   0.476  0.1560  0.0931  0.3277
  148HFI     F6 2263   0.840   0.160   0.615  0.1502 -0.1870 -0.1036
  148HFI     H1 2264   0.977   0.299   0.518  0.5600  2.6161  0.1167
  148HFI     H2 2265   0.905   0.144   0.290 -0.5044 -1.6610  0.6387
  149HFI     O1 2266   2.730   0.129   0.251  0.2352 -0.6321 -0.3662
  149HFI     C1 2267   2.597   0.080   0.287 -0.1305  0.0595  0.0319
  149HFI     C2 2268   2.483   0.116   0.185 -0.0374  0.5060 -0.3367
  149HFI     F1 2269   2.474   0.251   0.173  0.3870 -0.5000  0.1625
  149HFI     F2 2270   2.363   0.064   0.220 -0.4851  0.0915 -0.5405
  149HFI     F3 2271   2.522   0.054   0.070  0.4940  0.9948  0.0165
  149HFI     C3 2272   2.572   0.134   0.430  0.0990 -0.0309  0.0793
  149HFI     F4 2273   2.669   0.102   0.522 -0.1021 -0.0903  0.3641
  149HFI     F5 2274   2.466   0.078   0.481 -0.2728  0.1013 -0.1215
  149HFI     F6 2275   2.553   0.265   0.429 -0.3735  0.2431 -0.2090
  149HFI     H1 2276   2.723   0.222   0.224 -2.1385 -1.1080 -1.4873
  149HFI     H2 2277   2.604  -0.028   0.303 -2.0353 -0.5067 -2.4770
  150HFI     O1 2278   1.310   2.312   3.088  0.6055  0.4869 -0.1263
  150HFI     C1 2279   1.322   2.437   3.016 -0.0953  0.2758 -0.2263
  150HFI     C2 2280   1.449   2.458   2.932 -0.0217 -0.0981 -0.7884
  150HFI     F1 2281   1.472   2.347   2.858 -0.3597 -0.4667  0.4915
  150HFI     F2 2282   1.563   2.484   3.004  0.1496  0.0150 -0.1614
  150HFI     F3 2283   1.432   2.555   2.843 -0.2438  0.4714  0.0937
  150HFI     C3 2284   1.293   2.557   3.107 -0.1085  0.2395 -0.2328
  150HFI     F4 2285   1.389   2.572   3.198 -0.3492  0.2943  0.3453
  150HFI     F5 2286   1.179   2.541   3.178 -0.5694  0.0077 -0.1919
  150HFI     F6 2287   1.278   2.673   3.040 -0.2104 -0.5307 -0.0382
  150HFI     H1 2288   1.388   2.308   3.146 -1.1546 -1.7225  2.1557
  150HFI     H2 2289   1.247   2.447   2.937  1.1680  3.5466 -1.1175
  151HFI     O1 2290   0.331   1.390   2.696 -0.1383 -0.4910 -0.0266
  151HFI     C1 2291   0.447   1.432   2.772 -0.7160 -0.5440 -0.2561
  151HFI     C2 2292   0.547   1.315   2.792  0.6589  0.7869 -0.3782
  151HFI     F1 2293   0.650   1.342   2.871 -0.2332  0.3643 -0.1256
  151HFI     F2 2294   0.594   1.292   2.668  0.0802 -0.3637  0.5219
  151HFI     F3 2295   0.485   1.199   2.828 -0.2800 -0.3150 -0.5359
  151HFI     C3 2296   0.415   1.503   2.910  0.0037  0.1393 -0.1095
  151HFI     F4 2297   0.529   1.569   2.959  0.3690 -0.1910 -0.4463
  151HFI     F5 2298   0.377   1.418   3.002 -0.8410  0.2442  0.5789
  151HFI     F6 2299   0.323   1.599   2.894 -0.0620  0.3840 -0.6176
  151HFI     H1 2300   0.314   1.295   2.707 -1.6905 -0.0931  1.2163
  151HFI     H2 2301   0.502   1.508   2.716 -1.8159 -1.3943 -2.5833
  152HFI     O1 2302   2.587   0.883   1.324 -0.4674 -0.1457  0.2685
  152HFI     C1 2303   2.612   0.767   1.408 -0.2951  0.2481 -0.0113
  152HFI     C2 2304   2.486   0.704   1.456 -0.2199  0.9812  0.4767
  152HFI     F1 2305   2.419   0.778   1.543  0.0624 -0.3686 -0.4028
  152HFI     F2 2306   2.503   0.579   1.510 -0.0387  0.3421  0.2103
  152HFI     F3 2307   2.399   0.686   1.354  0.1596  0.0924 -0.3200
  152HFI     C3 2308   2.707   0.803   1.525  0.3541  0.2053 -0.2379
  152HFI     F4 2309   2.744   0.690   1.594 -0.1924 -0.2049  0.0933
  152HFI     F5 2310   2.656   0.899   1.606  0.0969  0.4952 -0.3886
  152HFI     F6 2311   2.823   0.854   1.478  0.0474  0.2944 -0.4516
  152HFI     H1 2312   2.548   0.947   1.386 -2.8438 -0.7806 -0.5240
  152HFI     H2 2313   2.653   0.683   1.350 -1.2618 -1.2848  1.5073
  153HFI     O1 2314   2.585   1.855   2.871  0.5055  0.2010 -0.0477
  153HFI     C1 2315   2.575   1.897   2.730  0.0338  0.8907 -1.2669
  153HFI     C2 2316   2.707   1.875   2.648  0.1725 -0.2171  0.8507
  153HFI     F1 2317   2.810   1.911   2.716 -0.0922  0.5132 -0.1860
  153HFI     F2 2318   2.715   1.947   2.536  0.2216  0.5854  0.3336
  153HFI     F3 2319   2.720   1.744   2.621 -0.0676 -0.1721 -0.3901
  153HFI     C3 2320   2.503   2.037   2.711 -0.3117 -0.1712  0.2888
  153HFI     F4 2321   2.421   2.071   2.815  0.4941  0.1554 -0.2167
  153HFI     F5 2322   2.420   2.027   2.610 -0.0313 -0.1413  0.4980
  153HFI     F6 2323   2.597   2.136   2.704  0.7030 -0.4496 -0.2134
  153HFI     H1 2324   2.501   1.884   2.911 -0.6963 -1.9491 -0.9476
  153HFI     H2 2325   2.506   1.826   2.683  0.1393  0.5984 -0.9798
  154HFI     O1 2326   1.986   0.475   1.030  0.1295  0.1262 -0.0215
  154HFI     C1 2327   1.851   0.514   0.998 -0.4512  0.2224 -0.0256
  154HFI     C2 2328   1.758   0.492   1.117  0.3636 -0.0699  0.1152
  154HFI     F1 2329   1.805   0.557   1.222 -0.5077 -1.1954 -0.0471
  154HFI     F2 2330   1.751   0.365   1.159 -0.0198 -0.2981 -0.2719
  154HFI     F3 2331   1.628   0.538   1.091 -0.3246  0.3064  0.0212
  154HFI     C3 2332   1.782   0.449   0.871 -0.5672 -0.5226 -0.5304
  154HFI     F4 2333   1.732   0.323   0.894  0.1968  0.4151  0.1309
  154HFI     F5 2334   1.869   0.440   0.768 -0.4063  0.0945  0.4945
  154HFI     F6 2335   1.677   0.523   0.838 -0.1265 -0.1476 -0.3450
  154HFI     H1 2336   2.010   0.503   1.120 -0.3415 -1.5990  0.6607
  154HFI     H2 2337   1.845   0.622   0.979  1.1256  0.1151 -1.1780
  155HFI     O1 2338   2.798   1.504   2.969 -0.5769  0.1569  0.3600
  155HFI     C1 2339   2.890   1.611   2.915 -0.6513 -0.0073 -0.2524
  155HFI     C2 2340   2.984   1.545   2.819 -0.0441  0.0525  0.7321
  155HFI     F1 2341   3.086   1.491   2.880 -0.3732  0.3737 -0.5875
  155HFI     F2 2342   3.032   1.632   2.730  0.3918 -0.1398  0.0735
  155HFI     F3 2343   2.924   1.454   2.743  0.3647 -0.6612  0.2645
  155HFI     C3 2344   2.959   1.692   3.033  0.5018  0.0547  0.2557
  155HFI     F4 2345   3.037   1.783   2.987  0.0425 -0.3649  0.4732
  155HFI     F5 2346   3.025   1.606   3.117 -0.2160  0.0578 -0.0066
  155HFI     F6 2347   2.853   1.747   3.106 -0.6688 -0.1675  0.0014
  155HFI     H1 2348   2.781   1.441   2.896 -1.4761 -1.2876  1.7855
  155HFI     H2 2349   2.838   1.673   2.842  0.8934  0.1586 -1.2423
  156HFI     O1 2350   2.382   2.419   0.486 -0.2165 -0.2761  0.0584
  156HFI     C1 2351   2.322   2.519   0.408 -0.0695 -0.4183  0.2239
  156HFI     C2 2352   2.384   2.663   0.440  0.0340  0.0009 -0.1239
  156HFI     F1 2353   2.364   2.700   0.570  0.0951  0.0958  0.0464
  156HFI     F2 2354   2.334   2.758   0.362  0.0825 -0.0957 -0.3675
  156HFI     F3 2355   2.522   2.657   0.414  0.0551 -0.8028 -0.1388
  156HFI     C3 2356   2.169   2.512   0.430  0.8741  0.3375 -0.1308
  156HFI     F4 2357   2.121   2.386   0.403  0.4049  0.4724 -0.6134
  156HFI     F5 2358   2.101   2.604   0.350 -0.7187  0.0289  0.0016
  156HFI     F6 2359   2.132   2.536   0.555 -0.4945 -0.0748 -0.7396
  156HFI     H1 2360   2.350   2.432   0.577  1.3088 -4.1154  1.2310
  156HFI     H2 2361   2.329   2.500   0.300 -1.6593  1.0075 -0.1596
  157HFI     O1 2362   3.288   0.444   0.992  0.5141  0.0931  0.5285
  157HFI     C1 2363   3.347   0.575   1.004 -0.2418  0.2166  0.3033
  157HFI     C2 2364   3.329   0.650   0.871  0.0210  0.0186 -0.0764
  157HFI     F1 2365   3.203   0.657   0.830  0.3625  0.1810 -0.2062
  157HFI     F2 2366   3.391   0.578   0.772 -0.0437  0.3348  0.0389
  157HFI     F3 2367   3.383   0.771   0.871 -0.3673 -0.0538  0.5496
  157HFI     C3 2368   3.500   0.564   1.049 -0.2420 -0.5346 -0.6555
  157HFI     F4 2369   3.559   0.689   1.068 -0.0974  0.5886 -0.1448
  157HFI     F5 2370   3.577   0.503   0.959  0.0432 -0.0600 -0.0684
  157HFI     F6 2371   3.504   0.492   1.166 -0.6023  0.0240 -0.0515
  157HFI     H1 2372   3.286   0.427   0.897  0.8536  0.0071  0.5372
  157HFI     H2 2373   3.297   0.640   1.077  1.0539 -0.0995  1.4844
  158HFI     O1 2374   1.513   0.263   2.190  0.3262 -0.1918  0.2584
  158HFI     C1 2375   1.580   0.297   2.315  0.5643  0.7784  0.5199
  158HFI     C2 2376   1.667   0.428   2.296 -0.1329  0.0666  0.6739
  158HFI     F1 2377   1.696   0.476   2.416 -0.4059  0.0998 -0.1432
  158HFI     F2 2378   1.604   0.520   2.226 -0.5387 -0.2560 -0.2288
  158HFI     F3 2379   1.781   0.398   2.237 -0.2831 -0.2335  0.5489
  158HFI     C3 2380   1.656   0.182   2.372  0.7044 -0.4712  0.0206
  158HFI     F4 2381   1.743   0.137   2.280  0.0283 -0.1460 -0.2144
  158HFI     F5 2382   1.569   0.080   2.396 -0.3473  0.8046  0.1264
  158HFI     F6 2383   1.718   0.207   2.487 -0.4133 -0.0583  0.5667
  158HFI     H1 2384   1.562   0.197   2.137  1.7500  1.4675 -0.5410
  158HFI     H2 2385   1.500   0.328   2.383 -0.7322  0.9200 -1.0371
  159HFI     O1 2386   0.448   1.473   0.917  0.4179  0.3858  0.5244
  159HFI     C1 2387   0.433   1.544   1.046  0.3981 -0.3624 -0.1330
  159HFI     C2 2388   0.415   1.691   1.024  0.4112 -0.3093  0.1905
  159HFI     F1 2389   0.296   1.716   0.985 -0.2177  0.5450 -0.8848
  159HFI     F2 2390   0.499   1.738   0.934  0.1804 -0.2401  0.1867
  159HFI     F3 2391   0.440   1.762   1.132 -0.2347  0.4781  0.4958
  159HFI     C3 2392   0.542   1.499   1.141 -0.0144  0.2290 -0.2898
  159HFI     F4 2393   0.574   1.373   1.136 -0.3889  0.9118 -0.2317
  159HFI     F5 2394   0.507   1.514   1.265  0.3907  0.3422  0.0555
  159HFI     F6 2395   0.657   1.561   1.121 -0.2483 -0.3638 -0.4527
  159HFI     H1 2396   0.542   1.454   0.902  0.3166 -0.4277  0.8969
  159HFI     H2 2397   0.343   1.512   1.101  2.4411 -2.1938  2.2502
  160HFI     O1 2398   0.929   0.402   3.328  0.7555  0.2088  0.1777
  160HFI     C1 2399   0.827   0.371   3.435 -0.0398  0.0325  0.0083
  160HFI     C2 2400   0.737   0.257   3.387  0.2684 -0.0291  0.3343
  160HFI     F1 2401   0.800   0.152   3.336 -0.3450  0.0307 -0.0083
  160HFI     F2 2402   0.656   0.303   3.295 -0.1606 -0.1244 -0.0620
  160HFI     F3 2403   0.668   0.207   3.488 -0.0677  0.3010 -0.1778
  160HFI     C3 2404   0.761   0.496   3.481  0.1779  0.3017 -0.2674
  160HFI     F4 2405   0.851   0.580   3.539 -0.2249  0.4898 -0.8422
  160HFI     F5 2406   0.659   0.466   3.572 -0.0908  0.0281 -0.0884
  160HFI     F6 2407   0.699   0.571   3.390 -0.4846  0.2306  0.1322
  160HFI     H1 2408   0.889   0.474   3.276 -0.2516 -0.3438  0.1628
  160HFI     H2 2409   0.889   0.334   3.517  1.2631  0.7892 -0.6145
  161HFI     O1 2410   2.085   0.790   2.870  0.4303 -0.3900 -0.2013
  161HFI     C1 2411   2.046   0.930   2.836 -0.3859 -0.0369  0.5962
  161HFI     C2 2412   1.907   0.925   2.765  0.3770  0.3412 -0.6893
  161HFI     F1 2413   1.906   0.835   2.661  0.0033  0.3313  0.2705
  161HFI     F2 2414   1.875   1.050   2.717  0.1593  0.3376  0.5584
  161HFI     F3 2415   1.808   0.896   2.855  0.2682  0.2690 -0.1207
  161HFI     C3 2416   2.154   0.998   2.746 -0.0462  0.9938  0.6960
  161HFI     F4 2417   2.276   0.982   2.798 -0.2403  0.3986 -0.3722
  161HFI     F5 2418   2.135   1.123   2.724 -0.6595  0.3120 -0.1862
  161HFI     F6 2419   2.145   0.930   2.627  0.7703 -0.1598  0.0421
  161HFI     H1 2420   2.181   0.778   2.876  0.3680  0.2418  2.4509
  161HFI     H2 2421   2.037   0.993   2.926  0.2342 -0.7060  1.1381
  162HFI     O1 2422   1.936   2.249   3.388  0.4363 -0.0626 -0.8376
  162HFI     C1 2423   1.851   2.337   3.307 -0.4829 -0.2346 -0.1439
  162HFI     C2 2424   1.908   2.481   3.304 -0.7618 -0.3941  0.4360
  162HFI     F1 2425   2.033   2.487   3.271 -0.3261 -0.0877  0.6605
  162HFI     F2 2426   1.899   2.540   3.427  0.0931 -0.3018  0.3592
  162HFI     F3 2427   1.845   2.556   3.206 -0.0462  0.3178 -0.0970
  162HFI     C3 2428   1.701   2.336   3.351 -0.1749  0.9824  0.6061
  162HFI     F4 2429   1.683   2.393   3.477  0.3017  1.1522  0.5685
  162HFI     F5 2430   1.657   2.210   3.360  0.3557  0.0912  0.2848
  162HFI     F6 2431   1.625   2.401   3.262  0.2770 -0.0955  0.3748
  162HFI     H1 2432   2.004   2.305   3.428 -0.0767  1.1102 -1.5966
  162HFI     H2 2433   1.854   2.302   3.203 -0.6546 -1.8743  0.3884
  163HFI     O1 2434   2.458   3.360   3.024 -0.2686  0.2635 -0.5953
  163HFI     C1 2435   2.486   3.396   2.888 -0.5840 -0.4239  0.5064
  163HFI     C2 2436   2.493   3.270   2.796 -0.0482  0.0958  0.1551
  163HFI     F1 2437   2.497   3.305   2.661  0.2821  0.7607  0.1190
  163HFI     F2 2438   2.380   3.200   2.809  0.2854 -0.0602  0.3339
  163HFI     F3 2439   2.606   3.194   2.820  0.1868 -0.1182 -0.1607
  163HFI     C3 2440   2.597   3.498   2.874  0.6085 -0.0487  0.4313
  163HFI     F4 2441   2.630   3.505   2.750 -0.5238 -0.2398  0.4531
  163HFI     F5 2442   2.708   3.465   2.943  0.8294 -0.3620 -0.2566
  163HFI     F6 2443   2.550   3.620   2.912  0.3504 -0.3290 -0.0983
  163HFI     H1 2444   2.525   3.295   3.052  0.3008 -0.2557 -3.0558
  163HFI     H2 2445   2.396   3.450   2.856 -1.8667 -3.5550 -1.3883
  164HFI     O1 2446   1.045   1.111   1.234  0.1961 -0.7210  0.4693
  164HFI     C1 2447   0.954   1.082   1.115  0.0353  0.1631 -0.2384
  164HFI     C2 2448   0.988   0.957   1.045 -0.0780 -0.3135 -0.4627
  164HFI     F1 2449   1.112   0.954   0.983  0.5104 -0.3539  0.3417
  164HFI     F2 2450   0.896   0.928   0.948  0.1777  0.0323  0.5118
  164HFI     F3 2451   0.985   0.852   1.131  0.8483 -0.4191  0.6782
  164HFI     C3 2452   0.962   1.205   1.022  0.7927 -0.5627 -0.7327
  164HFI     F4 2453   0.903   1.308   1.079 -0.1281 -0.1741  0.2056
  164HFI     F5 2454   0.904   1.188   0.900 -0.1957 -0.1789 -0.6309
  164HFI     F6 2455   1.087   1.247   0.990  0.0349 -0.0107  0.4537
  164HFI     H1 2456   1.045   1.208   1.247 -0.1765 -0.6480 -0.0326
  164HFI     H2 2457   0.852   1.073   1.153  1.6647 -1.8780  3.9831
  165HFI     O1 2458   0.619   1.012   1.491  0.3972  0.5669  0.2252
  165HFI     C1 2459   0.620   1.152   1.543 -0.8836  0.1244 -0.4451
  165HFI     C2 2460   0.496   1.233   1.513  0.1381  0.3468  0.6578
  165HFI     F1 2461   0.485   1.356   1.565 -0.3248 -0.2138  0.3129
  165HFI     F2 2462   0.395   1.163   1.572  0.3658 -0.1437 -0.0594
  165HFI     F3 2463   0.469   1.247   1.382 -0.4638 -0.1494  0.4020
  165HFI     C3 2464   0.750   1.214   1.489  1.2603  0.3284 -0.9213
  165HFI     F4 2465   0.755   1.205   1.351  0.4026  0.2530 -0.0370
  165HFI     F5 2466   0.851   1.138   1.538 -0.1436  0.6004  0.0514
  165HFI     F6 2467   0.760   1.338   1.530  0.4977 -0.0309  0.2727
  165HFI     H1 2468   0.567   1.014   1.409 -1.4916  0.3704  1.3876
  165HFI     H2 2469   0.631   1.150   1.652 -0.0321  1.7179 -0.4816
  166HFI     O1 2470   1.486   1.954   0.192 -0.6061  0.5052 -0.0618
  166HFI     C1 2471   1.578   1.869   0.269  0.0457 -0.0460  0.2649
  166HFI     C2 2472   1.580   1.715   0.219  0.2327 -0.7012  0.2001
  166HFI     F1 2473   1.697   1.663   0.249  0.0904  0.7330  0.2378
  166HFI     F2 2474   1.569   1.706   0.089 -0.2093 -0.4281 -0.0199
  166HFI     F3 2475   1.482   1.640   0.271 -0.2610 -0.1599  0.2248
  166HFI     C3 2476   1.538   1.884   0.417 -0.3716  0.2234 -0.9347
  166HFI     F4 2477   1.606   1.788   0.488 -0.3948  0.0838 -0.1494
  166HFI     F5 2478   1.410   1.847   0.445 -0.1430 -0.2796  0.3054
  166HFI     F6 2479   1.565   2.011   0.470 -0.0171 -0.0440  0.0801
  166HFI     H1 2480   1.487   1.946   0.095 -1.5931 -1.0062  0.0346
  166HFI     H2 2481   1.683   1.900   0.270 -0.6443  2.3796 -0.1703
  167HFI     O1 2482   2.925   1.013   3.247  0.0088 -0.3910  0.4092
  167HFI     C1 2483   3.063   0.995   3.294  0.4720 -0.4293 -0.1512
  167HFI     C2 2484   3.165   1.101   3.237  0.7513 -0.2409  0.6821
  167HFI     F1 2485   3.298   1.072   3.256 -0.7484  0.2552  0.0670
  167HFI     F2 2486   3.131   1.218   3.297 -0.0993 -0.5889 -0.0798
  167HFI     F3 2487   3.138   1.126   3.109 -0.4917 -0.2021 -0.1976
  167HFI     C3 2488   3.101   0.849   3.270  0.1760 -0.0697 -0.6911
  167HFI     F4 2489   3.007   0.755   3.310  0.2513  0.3504  0.2182
  167HFI     F5 2490   3.217   0.820   3.339  0.4592 -0.2534 -0.5150
  167HFI     F6 2491   3.124   0.821   3.143 -0.1327 -0.1767  0.5850
  167HFI     H1 2492   2.896   1.088   3.301 -0.7798 -1.7526  1.9273
  167HFI     H2 2493   3.066   1.005   3.403  0.6521 -1.3782 -0.0591
  168HFI     O1 2494   3.172   3.409   3.194  0.1504  0.2209 -0.8001
  168HFI     C1 2495   3.105   3.538   3.201 -0.2592 -0.1149 -0.9363
  168HFI     C2 2496   3.221   3.627   3.243  0.2591  0.5259 -0.2867
  168HFI     F1 2497   3.325   3.616   3.151 -0.2784 -0.3532 -0.4123
  168HFI     F2 2498   3.270   3.610   3.371 -0.1885  0.2495 -0.0946
  168HFI     F3 2499   3.169   3.751   3.239 -0.4181  0.0477  0.0050
  168HFI     C3 2500   2.973   3.541   3.280 -0.5725 -0.2738 -0.5064
  168HFI     F4 2501   2.893   3.427   3.241 -0.3135  0.0002  0.2451
  168HFI     F5 2502   2.894   3.654   3.263  0.2474 -0.1772  0.0303
  168HFI     F6 2503   3.002   3.531   3.406  0.1166 -0.6515 -0.1640
  168HFI     H1 2504   3.108   3.345   3.230  0.2033  1.6091  1.8249
  168HFI     H2 2505   3.074   3.562   3.099  0.2773 -0.6568 -1.2278
  169HFI     O1 2506   0.753   2.533   2.902  0.5953  0.0156 -0.2602
  169HFI     C1 2507   0.845   2.534   2.780 -0.2518 -0.3877 -0.2855
  169HFI     C2 2508   0.925   2.400   2.765 -0.0327 -0.6109  0.7058
  169HFI     F1 2509   0.840   2.304   2.734  0.1063 -0.1315  0.0567
  169HFI     F2 2510   0.989   2.355   2.881  0.3774 -0.5783 -0.7206
  169HFI     F3 2511   1.020   2.417   2.668  0.1431  0.0585  0.0044
  169HFI     C3 2512   0.942   2.654   2.789  0.5379  0.3913 -0.3897
  169HFI     F4 2513   1.037   2.633   2.883 -0.1037  0.1704  0.5221
  169HFI     F5 2514   0.877   2.765   2.815 -0.1568 -0.1115 -0.3382
  169HFI     F6 2515   1.003   2.675   2.666  0.2939 -0.2917  0.2998
  169HFI     H1 2516   0.784   2.484   2.980  0.4946  1.0102  0.4147
  169HFI     H2 2517   0.782   2.546   2.692 -1.6608 -1.8177  0.5068
  170HFI     O1 2518   1.231   0.675   3.014  0.2397  0.4112  0.3272
  170HFI     C1 2519   1.136   0.776   3.054 -0.4151  0.4999  0.0294
  170HFI     C2 2520   1.200   0.917   3.064  0.3307 -0.2968 -0.8076
  170HFI     F1 2521   1.310   0.911   3.135 -0.3808  0.0228 -0.2721
  170HFI     F2 2522   1.121   1.023   3.116  0.1123 -0.5531 -0.5434
  170HFI     F3 2523   1.240   0.953   2.941 -0.2639 -0.5704  0.6915
  170HFI     C3 2524   1.063   0.747   3.192 -0.4591  0.3901 -0.3651
  170HFI     F4 2525   0.988   0.641   3.174  0.0995  0.0531  0.2672
  170HFI     F5 2526   0.978   0.842   3.238 -0.1657 -0.6949 -0.5272
  170HFI     F6 2527   1.155   0.716   3.286  0.1944 -0.5749 -0.1347
  170HFI     H1 2528   1.309   0.669   3.073  0.3424  0.1564  0.1654
  170HFI     H2 2529   1.061   0.780   2.974 -0.1382  0.6765 -0.2205
  171HFI     O1 2530   1.149   0.394   2.294 -0.3802  0.0568  0.5080
  171HFI     C1 2531   1.068   0.273   2.256  0.5687 -0.0679 -0.6367
  171HFI     C2 2532   0.916   0.301   2.285  0.0952 -0.1594  0.0483
  171HFI     F1 2533   0.876   0.418   2.235 -0.0801  0.6324 -0.1219
  171HFI     F2 2534   0.889   0.310   2.414  0.4669 -0.2837  0.7155
  171HFI     F3 2535   0.835   0.208   2.239  0.0929  0.0528  0.4519
  171HFI     C3 2536   1.127   0.147   2.319 -0.6294  0.6630 -0.1820
  171HFI     F4 2537   1.060   0.046   2.271  0.4305 -0.3310 -0.0552
  171HFI     F5 2538   1.113   0.136   2.452  0.4344  0.1402  0.0209
  171HFI     F6 2539   1.261   0.130   2.290 -0.6402  0.7049 -0.5045
  171HFI     H1 2540   1.241   0.371   2.271 -1.0931 -0.3500 -2.1038
  171HFI     H2 2541   1.088   0.266   2.149  0.9955 -0.1002 -0.5553
  172HFI     O1 2542   2.079   3.341   2.445  0.2231  0.5323 -0.4627
  172HFI     C1 2543   2.192   3.428   2.415 -0.0135  0.2475  0.2131
  172HFI     C2 2544   2.212   3.539   2.518 -0.9273  0.0057  0.0831
  172HFI     F1 2545   2.091   3.595   2.543 -0.3244 -0.1485  0.7894
  172HFI     F2 2546   2.289   3.635   2.473 -0.4599 -0.2085 -0.1792
  172HFI     F3 2547   2.268   3.495   2.632  0.0016 -0.4146 -0.0356
  172HFI     C3 2548   2.164   3.487   2.274 -0.1647 -0.1057  0.2054
  172HFI     F4 2549   2.143   3.389   2.196 -0.4314  0.1857 -0.0945
  172HFI     F5 2550   2.275   3.550   2.229  0.2438  0.0256  0.3602
  172HFI     F6 2551   2.058   3.565   2.266  0.6302  0.2495 -0.6115
  172HFI     H1 2552   1.993   3.385   2.437  0.7775  1.6100 -0.5718
  172HFI     H2 2553   2.285   3.371   2.412  1.4900  2.6556 -4.6084
  173HFI     O1 2554   1.449   1.886   1.276  0.3133 -0.1788  0.2038
  173HFI     C1 2555   1.454   1.989   1.378  0.0821 -0.0367 -0.5287
  173HFI     C2 2556   1.583   1.978   1.464 -0.5722 -0.0805  0.3935
  173HFI     F1 2557   1.691   1.968   1.392  0.1563  0.0121  0.4283
  173HFI     F2 2558   1.578   1.860   1.531 -0.1504  0.3521 -1.0598
  173HFI     F3 2559   1.600   2.083   1.547 -0.0660  0.1299  0.2614
  173HFI     C3 2560   1.321   1.997   1.458 -0.5946 -0.7014  0.2911
  173HFI     F4 2561   1.221   2.048   1.378  0.0262  0.1271 -0.5226
  173HFI     F5 2562   1.327   2.070   1.567 -0.0432  0.0596 -0.3374
  173HFI     F6 2563   1.280   1.881   1.498  0.6491  0.4970 -0.0260
  173HFI     H1 2564   1.441   1.801   1.323  1.3539 -0.5024 -0.2009
  173HFI     H2 2565   1.468   2.089   1.335  0.0292  0.0219 -0.4083
  174HFI     O1 2566   2.397   1.024   2.462 -0.0934  0.4094  0.5101
  174HFI     C1 2567   2.332   1.145   2.413  0.0092  0.1355  0.1456
  174HFI     C2 2568   2.331   1.157   2.259  0.0913  0.1487 -0.1083
  174HFI     F1 2569   2.284   1.042   2.209  0.0426 -1.0492  0.3539
  174HFI     F2 2570   2.449   1.178   2.204  0.0476 -0.4184 -0.0075
  174HFI     F3 2571   2.250   1.248   2.210  0.6580 -0.4087  0.1094
  174HFI     C3 2572   2.397   1.272   2.472 -0.2759 -0.4712  0.6683
  174HFI     F4 2573   2.525   1.298   2.434  0.5032  0.4601 -0.7102
  174HFI     F5 2574   2.402   1.261   2.603 -0.0311  0.2158  0.2345
  174HFI     F6 2575   2.328   1.386   2.433 -0.1055 -0.0605  0.0597
  174HFI     H1 2576   2.405   0.952   2.397  3.3694 -0.0173  1.3143
  174HFI     H2 2577   2.224   1.146   2.434 -0.2416  3.2977 -1.0183
  175HFI     O1 2578   3.045   0.521   2.704  0.8942  0.0986 -0.9231
  175HFI     C1 2579   2.937   0.571   2.791 -0.3404  0.1109 -0.5337
  175HFI     C2 2580   2.992   0.656   2.903 -0.7577 -0.3223 -0.0441
  175HFI     F1 2581   2.898   0.671   2.993 -0.1771 -0.1699  0.1797
  175HFI     F2 2582   3.026   0.779   2.849  0.1737  0.0988 -0.5485
  175HFI     F3 2583   3.105   0.605   2.968 -0.0253 -0.0605 -0.6095
  175HFI     C3 2584   2.849   0.458   2.839 -0.1080 -0.6757  0.0262
  175HFI     F4 2585   2.721   0.493   2.844 -0.5637 -0.1288  0.4228
  175HFI     F5 2586   2.882   0.411   2.961 -0.0282 -0.1690 -0.0485
  175HFI     F6 2587   2.865   0.353   2.750 -0.5950  0.0242 -0.6571
  175HFI     H1 2588   3.012   0.439   2.664 -0.0870 -0.0516  0.1459
  175HFI     H2 2589   2.874   0.640   2.734 -0.2935 -0.3853 -1.1974
  176HFI     O1 2590   0.713   1.047   3.313  0.2211 -0.4663  0.1330
  176HFI     C1 2591   0.640   1.167   3.364 -0.2076  0.1943  0.5385
  176HFI     C2 2592   0.490   1.131   3.402 -0.3182  0.3256  0.0594
  176HFI     F1 2593   0.491   1.023   3.483 -0.1725 -0.0664 -0.0123
  176HFI     F2 2594   0.419   1.085   3.295 -0.4026 -0.3337 -0.0707
  176HFI     F3 2595   0.427   1.227   3.473  0.5689 -0.2304 -0.2713
  176HFI     C3 2596   0.648   1.288   3.268  1.0155  0.3168 -0.0085
  176HFI     F4 2597   0.605   1.400   3.319  0.0459 -0.0039 -0.4116
  176HFI     F5 2598   0.578   1.264   3.158 -0.2232 -0.3940 -0.2444
  176HFI     F6 2599   0.778   1.313   3.236  0.3033 -0.2288  0.2284
  176HFI     H1 2600   0.650   0.978   3.288 -2.7214  2.1839 -0.0191
  176HFI     H2 2601   0.684   1.204   3.457  0.8188 -0.6033  0.3800
  177HFI     O1 2602   2.305   1.928   2.365 -0.0855 -0.0313 -0.5499
  177HFI     C1 2603   2.326   1.810   2.275  0.4663  0.1866  0.4725
  177HFI     C2 2604   2.197   1.727   2.268 -0.2259 -0.1110 -0.5283
  177HFI     F1 2605   2.156   1.682   2.388  0.6444  0.3013 -0.2663
  177HFI     F2 2606   2.216   1.620   2.191 -0.2412  0.3651 -0.2877
  177HFI     F3 2607   2.089   1.794   2.218 -0.1058 -0.3691  0.0344
  177HFI     C3 2608   2.454   1.735   2.322 -0.0890 -0.6595 -0.3862
  177HFI     F4 2609   2.565   1.818   2.302  0.4619 -0.1740 -0.3096
  177HFI     F5 2610   2.479   1.617   2.249  0.7431 -0.3677  0.3184
  177HFI     F6 2611   2.447   1.715   2.453  0.5317 -0.2339 -0.6234
  177HFI     H1 2612   2.336   1.899   2.453 -3.2954  1.4856  1.1994
  177HFI     H2 2613   2.345   1.837   2.170 -1.1123 -0.4637  0.0082
  178HFI     O1 2614   2.436   0.644   0.495  0.0145  0.1370  0.2977
  178HFI     C1 2615   2.570   0.684   0.462  0.4040  0.3625 -0.0175
  178HFI     C2 2616   2.602   0.648   0.308  0.1895  0.4261  0.0854
  178HFI     F1 2617   2.592   0.516   0.291  0.3661 -0.0073  0.2024
  178HFI     F2 2618   2.724   0.688   0.256 -0.0242  0.2325  0.0514
  178HFI     F3 2619   2.503   0.706   0.232 -0.3019 -0.4371  0.0825
  178HFI     C3 2620   2.663   0.637   0.568 -0.2234 -0.4789  0.2849
  178HFI     F4 2621   2.789   0.658   0.534  0.4993 -0.1195  0.0731
  178HFI     F5 2622   2.648   0.503   0.601 -0.0605  0.1660  0.0985
  178HFI     F6 2623   2.640   0.692   0.684  0.2930 -0.2440  0.4320
  178HFI     H1 2624   2.415   0.554   0.463 -0.4021 -0.3169  1.7971
  178HFI     H2 2625   2.565   0.793   0.450 -0.9918  0.2330 -0.6737
  179HFI     O1 2626   3.133   1.440   0.538 -0.0848 -0.3952 -0.9286
  179HFI     C1 2627   3.109   1.582   0.537  0.5920 -0.4375 -0.1114
  179HFI     C2 2628   3.184   1.650   0.658 -0.8336  0.2640 -0.0953
  179HFI     F1 2629   3.157   1.777   0.665  0.1518 -0.2334 -0.7145
  179HFI     F2 2630   3.319   1.640   0.628  0.2994  0.3473 -0.5266
  179HFI     F3 2631   3.171   1.597   0.782 -0.8782 -0.0253  0.4701
  179HFI     C3 2632   2.953   1.616   0.543 -1.2724 -0.2373 -0.1922
  179HFI     F4 2633   2.876   1.550   0.448 -0.4778  0.6206  0.3384
  179HFI     F5 2634   2.934   1.750   0.516  0.5021  0.5255  0.0839
  179HFI     F6 2635   2.891   1.596   0.660  0.5758 -0.0452 -0.1439
  179HFI     H1 2636   3.091   1.400   0.616 -1.3470  1.8633 -0.3823
  179HFI     H2 2637   3.147   1.617   0.441  2.0500 -0.8550  0.2975
  180HFI     O1 2638   2.811   3.046   0.851  0.2536 -0.2807 -0.0006
  180HFI     C1 2639   2.788   3.074   0.710  0.5978  0.7241  0.0063
  180HFI     C2 2640   2.696   3.195   0.679  0.1103  0.1753 -0.2600
  180HFI     F1 2641   2.566   3.181   0.736  0.5134  0.4814  0.4145
  180HFI     F2 2642   2.690   3.223   0.554 -0.0416  0.0310 -0.4461
  180HFI     F3 2643   2.761   3.302   0.733 -0.5249 -0.1235 -0.3109
  180HFI     C3 2644   2.746   2.950   0.629 -1.0707  0.3297  0.9200
  180HFI     F4 2645   2.619   2.921   0.657 -0.0868  0.5664 -0.4196
  180HFI     F5 2646   2.824   2.843   0.658 -0.0738 -0.3501  0.4244
  180HFI     F6 2647   2.754   2.968   0.490 -0.2699  0.1515 -0.0138
  180HFI     H1 2648   2.728   3.039   0.902 -1.0147  0.3507 -1.9504
  180HFI     H2 2649   2.883   3.096   0.658 -0.6817  2.7513 -1.5554
  181HFI     O1 2650   0.974   2.095   1.181  0.4897 -0.5643  0.3200
  181HFI     C1 2651   1.038   2.125   1.054 -0.3586 -1.0881  0.3420
  181HFI     C2 2652   1.166   2.044   1.022 -0.8133  0.2100 -0.2055
  181HFI     F1 2653   1.166   1.921   1.065  0.0012 -0.6323  0.1441
  181HFI     F2 2654   1.279   2.097   1.079  0.0038  0.0485  0.6191
  181HFI     F3 2655   1.193   2.036   0.889  0.7311 -0.8276  0.1356
  181HFI     C3 2656   1.059   2.277   1.028  0.2055 -0.0999  0.2610
  181HFI     F4 2657   1.112   2.301   0.904 -0.6045  0.0564 -0.4153
  181HFI     F5 2658   1.141   2.332   1.117 -0.2066 -0.1396 -0.0844
  181HFI     F6 2659   0.940   2.342   1.031  0.6408 -0.9236 -0.2327
  181HFI     H1 2660   0.969   1.998   1.190 -1.0471 -0.3466  2.1470
  181HFI     H2 2661   0.966   2.093   0.977 -0.3814 -0.5525  0.1329
  182HFI     O1 2662   1.758   2.946   3.668  0.8635 -0.1439  0.4662
  182HFI     C1 2663   1.890   2.886   3.675 -0.3929  0.1745 -0.4481
  182HFI     C2 2664   1.908   2.802   3.805 -0.7081 -0.8179 -0.3100
  182HFI     F1 2665   2.027   2.745   3.801 -0.2176 -0.0330 -0.1023
  182HFI     F2 2666   1.813   2.712   3.822  0.1959  0.0829 -0.5645
  182HFI     F3 2667   1.900   2.870   3.916  0.1332 -0.1399  0.2720
  182HFI     C3 2668   1.990   3.004   3.655  1.0548 -0.1572  0.0334
  182HFI     F4 2669   1.961   3.061   3.539 -0.1418 -0.2870 -0.0187
  182HFI     F5 2670   2.112   2.953   3.641 -0.0526  0.0744  0.7238
  182HFI     F6 2671   1.993   3.098   3.751 -0.4972  0.1076  0.2745
  182HFI     H1 2672   1.757   3.010   3.742  2.0813 -1.3177  1.5271
  182HFI     H2 2673   1.903   2.812   3.595 -0.4264 -1.3455  0.9127
  183HFI     O1 2674   2.439   3.200   0.090 -0.3579  0.0289  0.6438
  183HFI     C1 2675   2.472   3.063   0.138  0.2636 -0.7625  0.3274
  183HFI     C2 2676   2.620   3.044   0.183 -0.0014 -0.0733 -0.8289
  183HFI     F1 2677   2.645   2.934   0.259 -0.0089  0.3305 -0.3691
  183HFI     F2 2678   2.652   3.159   0.256  0.0044 -0.0966 -0.1586
  183HFI     F3 2679   2.705   3.038   0.083 -0.2101 -0.1812 -0.5025
  183HFI     C3 2680   2.432   2.958   0.031  0.0122 -0.5284 -0.1084
  183HFI     F4 2681   2.301   2.945   0.029 -0.6080  0.0199  0.5461
  183HFI     F5 2682   2.475   2.832   0.053  0.1115  0.9315  0.0334
  183HFI     F6 2683   2.472   2.979  -0.091 -0.0925 -0.6055  0.0974
  183HFI     H1 2684   2.464   3.203  -0.004 -0.5540 -2.6828  0.4920
  183HFI     H2 2685   2.413   3.039   0.227  0.7228 -0.0950  0.8231
  184HFI     O1 2686   0.932   3.179   2.367 -0.0722 -0.4603  0.9104
  184HFI     C1 2687   0.804   3.210   2.430  0.4071 -0.2891 -0.0747
  184HFI     C2 2688   0.701   3.257   2.324 -0.2030  0.1525 -0.2243
  184HFI     F1 2689   0.581   3.305   2.385  0.2896 -0.1897 -0.0731
  184HFI     F2 2690   0.674   3.159   2.241 -0.3133 -0.2806  0.7184
  184HFI     F3 2691   0.751   3.361   2.246  0.4100 -0.3571  0.3814
  184HFI     C3 2692   0.825   3.312   2.550  0.5762 -0.3694 -0.5157
  184HFI     F4 2693   0.705   3.345   2.605 -0.1157 -0.1306  0.0235
  184HFI     F5 2694   0.885   3.422   2.508 -0.0768 -0.1457  0.2600
  184HFI     F6 2695   0.895   3.262   2.648  0.0180  0.3471  0.4822
  184HFI     H1 2696   0.946   3.225   2.283  2.7646  0.0050  1.5970
  184HFI     H2 2697   0.763   3.117   2.470 -1.8307 -0.0007 -1.5855
  185HFI     O1 2698   1.841   1.395   2.227 -0.3137 -0.3076 -0.1352
  185HFI     C1 2699   1.921   1.338   2.337 -0.3942  0.8666 -0.0665
  185HFI     C2 2700   1.915   1.185   2.338  0.3323 -0.1432  0.0053
  185HFI     F1 2701   1.792   1.137   2.334  0.0401 -0.4890  0.3803
  185HFI     F2 2702   1.982   1.128   2.442 -0.0150 -0.1151 -0.3669
  185HFI     F3 2703   1.983   1.147   2.231  0.4496  0.1471 -0.4192
  185HFI     C3 2704   1.870   1.399   2.467  0.9084 -0.3606 -0.5451
  185HFI     F4 2705   1.881   1.535   2.462  0.2236  0.0389 -0.0540
  185HFI     F5 2706   1.946   1.362   2.576  0.8621  0.2213 -0.2935
  185HFI     F6 2707   1.738   1.364   2.481 -0.1216  0.1495 -0.4501
  185HFI     H1 2708   1.750   1.395   2.260 -0.9378 -0.9070 -1.7895
  185HFI     H2 2709   2.026   1.369   2.327  0.5457 -1.2805  2.5418
  186HFI     O1 2710   0.810   0.960   2.502  0.1095  0.5641  0.4070
  186HFI     C1 2711   0.826   0.851   2.405  0.4559  0.1281 -0.0383
  186HFI     C2 2712   0.822   0.910   2.260 -0.0287  0.1341 -0.6561
  186HFI     F1 2713   0.708   0.893   2.193  0.1873  0.6442 -0.3024
  186HFI     F2 2714   0.927   0.861   2.182  0.1966 -0.8248  0.3508
  186HFI     F3 2715   0.845   1.048   2.266 -0.0377  0.4663  0.2828
  186HFI     C3 2716   0.731   0.735   2.426  0.2314  0.2593  0.3702
  186HFI     F4 2717   0.753   0.681   2.546  0.4575  0.0731  0.0408
  186HFI     F5 2718   0.749   0.642   2.330  0.2163  0.1906  0.1864
  186HFI     F6 2719   0.601   0.780   2.426 -0.2775 -0.5524  0.1756
  186HFI     H1 2720   0.870   0.946   2.577  0.6648  2.0170  0.2676
  186HFI     H2 2721   0.927   0.806   2.407  0.1880 -0.5819 -2.0648
  187HFI     O1 2722   1.261   2.493   2.409  0.0380  0.0600 -0.2028
  187HFI     C1 2723   1.260   2.378   2.319  0.5796  0.1896 -0.2930
  187HFI     C2 2724   1.118   2.352   2.267 -0.0968  0.0354 -0.2782
  187HFI     F1 2725   1.123   2.251   2.182  0.3977 -0.2647  0.0164
  187HFI     F2 2726   1.073   2.465   2.205  0.4988 -0.3160 -0.5837
  187HFI     F3 2727   1.028   2.316   2.361  0.6361 -0.4528 -0.4420
  187HFI     C3 2728   1.325   2.245   2.379  0.6683 -0.0452 -0.6757
  187HFI     F4 2729   1.429   2.275   2.452  0.4343 -0.2336 -0.1993
  187HFI     F5 2730   1.372   2.154   2.282 -0.0667 -0.0623 -0.5185
  187HFI     F6 2731   1.240   2.178   2.461  0.2087  0.1314  0.2757
  187HFI     H1 2732   1.239   2.573   2.358 -1.4915  0.9219  1.7201
  187HFI     H2 2733   1.316   2.391   2.226 -3.3395  3.0980 -2.3679
  188HFI     O1 2734   1.801   3.314   2.495  0.5274  0.2973 -0.1962
  188HFI     C1 2735   1.716   3.202   2.455  0.1330 -0.9219  0.8168
  188HFI     C2 2736   1.759   3.078   2.541 -0.6777  0.7466  0.8241
  188HFI     F1 2737   1.680   2.971   2.512 -0.4718  0.1884 -0.6254
  188HFI     F2 2738   1.736   3.107   2.674 -0.1250  0.5843 -0.0136
  188HFI     F3 2739   1.887   3.032   2.523  0.1705 -0.6440 -0.0707
  188HFI     C3 2740   1.727   3.184   2.301  0.2045 -0.5892 -0.7864
  188HFI     F4 2741   1.649   3.084   2.262 -0.2288 -0.0037  0.3718
  188HFI     F5 2742   1.848   3.150   2.261 -0.1845  0.1190  0.4858
  188HFI     F6 2743   1.695   3.301   2.241  0.2882 -0.2073 -0.0757
  188HFI     H1 2744   1.773   3.326   2.588 -0.3706  2.7164 -0.7299
  188HFI     H2 2745   1.613   3.230   2.480 -1.0911 -2.1603 -2.5580
  189HFI     O1 2746   0.839   0.170   2.730 -0.2857  0.5849 -0.2344
  189HFI     C1 2747   0.784   0.257   2.833  0.6185  0.5386  0.7515
  189HFI     C2 2748   0.893   0.349   2.896  0.1627  0.1148 -0.6071
  189HFI     F1 2749   0.857   0.436   2.996  0.6996 -0.1503  0.0791
  189HFI     F2 2750   0.940   0.429   2.799  0.1041 -0.1091  0.4312
  189HFI     F3 2751   0.993   0.281   2.947 -0.1110  0.4217  0.8965
  189HFI     C3 2752   0.699   0.176   2.940 -0.1216  0.5359  0.0422
  189HFI     F4 2753   0.780   0.135   3.042 -0.0759 -0.3891 -0.0636
  189HFI     F5 2754   0.640   0.069   2.883  0.1618  0.3070  0.1019
  189HFI     F6 2755   0.600   0.250   2.998  0.4770  0.1530 -0.6552
  189HFI     H1 2756   0.829   0.079   2.762 -0.4077  1.6990  3.2069
  189HFI     H2 2757   0.721   0.333   2.786  0.4634  1.2388  2.0565
  190HFI     O1 2758   2.156   3.213   3.082  0.0079 -0.0634 -0.0252
  190HFI     C1 2759   2.053   3.314   3.059  1.0496 -0.0739 -0.8096
  190HFI     C2 2760   1.913   3.252   3.086 -0.4264  0.3682 -0.3568
  190HFI     F1 2761   1.924   3.130   3.143 -0.1199  0.6407 -0.4118
  190HFI     F2 2762   1.842   3.236   2.966  0.2212 -0.5106  0.3180
  190HFI     F3 2763   1.843   3.327   3.171  0.3226 -0.7005  0.0166
  190HFI     C3 2764   2.061   3.383   2.918 -0.0920  0.4909  0.5950
  190HFI     F4 2765   2.067   3.299   2.820 -0.1306  0.5346  0.0877
  190HFI     F5 2766   2.178   3.457   2.912  0.6077  0.4938 -0.1784
  190HFI     F6 2767   1.957   3.471   2.899 -0.1354  0.2642 -0.1363
  190HFI     H1 2768   2.112   3.145   3.137 -0.7217  0.0551 -0.4497
  190HFI     H2 2769   2.072   3.398   3.127  0.4298 -0.4100 -0.2137
  191HFI     O1 2770   0.052   2.129   3.627  0.2764 -0.0989 -0.0490
  191HFI     C1 2771   0.160   2.029   3.634  0.2951 -0.1151 -0.4752
  191HFI     C2 2772   0.109   1.879   3.636 -0.3285  0.4642  0.5858
  191HFI     F1 2773   0.077   1.846   3.507 -0.3982 -0.2105 -0.4731
  191HFI     F2 2774   0.002   1.851   3.714  0.3912  0.2163  0.1673
  191HFI     F3 2775   0.208   1.790   3.673 -0.7120 -0.1119  0.0765
  191HFI     C3 2776   0.242   2.065   3.758 -0.7227  0.2287  0.6105
  191HFI     F4 2777   0.352   1.984   3.777  0.2718 -0.9945 -0.2001
  191HFI     F5 2778   0.168   2.055   3.872 -0.3205  0.6241  0.2084
  191HFI     F6 2779   0.284   2.193   3.738 -0.5080 -0.4828 -0.2037
  191HFI     H1 2780  -0.005   2.111   3.551 -0.9430  2.1794  0.2571
  191HFI     H2 2781   0.236   2.037   3.556 -0.7047 -0.3790 -1.4959
  192HFI     O1 2782   1.191   0.936   1.373 -0.1066  0.5694 -0.7595
  192HFI     C1 2783   1.331   0.966   1.382 -0.1662 -0.0524 -0.1728
  192HFI     C2 2784   1.359   1.067   1.501  0.0071 -0.9916 -0.1781
  192HFI     F1 2785   1.487   1.060   1.532 -0.2980 -0.2839  0.2949
  192HFI     F2 2786   1.290   1.032   1.608  0.5623 -0.7500  0.0009
  192HFI     F3 2787   1.326   1.192   1.466  0.6743  0.0357  0.4223
  192HFI     C3 2788   1.386   1.015   1.245  0.3459 -0.1607 -0.6494
  192HFI     F4 2789   1.377   0.914   1.157  0.3482 -0.2141  0.1087
  192HFI     F5 2790   1.516   1.047   1.259 -0.6759 -0.6850 -0.1391
  192HFI     F6 2791   1.315   1.113   1.193 -0.1616  0.7264 -0.1028
  192HFI     H1 2792   1.147   1.022   1.358 -1.1625  0.6031  2.0335
  192HFI     H2 2793   1.394   0.881   1.410  0.2776  0.1212 -0.6102
  193HFI     O1 2794   1.042   3.423   3.212  0.5032 -0.5691  0.2540
  193HFI     C1 2795   1.010   3.279   3.207 -0.0041  0.3243 -0.4384
  193HFI     C2 2796   0.906   3.253   3.099 -0.5451  0.0608 -0.6050
  193HFI     F1 2797   0.789   3.304   3.132  0.3221  0.3314  0.0887
  193HFI     F2 2798   0.887   3.124   3.077  0.1519  0.0678 -0.3721
  193HFI     F3 2799   0.944   3.308   2.980  0.2130  1.1322 -0.4686
  193HFI     C3 2800   0.966   3.228   3.347 -0.7322 -0.1100 -0.1025
  193HFI     F4 2801   1.071   3.250   3.438  0.4087  0.0018 -0.2100
  193HFI     F5 2802   0.919   3.101   3.346 -0.3022 -0.0301 -0.0984
  193HFI     F6 2803   0.864   3.300   3.397 -0.2261 -0.3164  0.5727
  193HFI     H1 2804   0.963   3.478   3.201  1.6577  1.1447  0.3634
  193HFI     H2 2805   1.090   3.216   3.166  0.2618  0.1549  0.3391
  194HFI     O1 2806   1.644   2.435   0.003  0.1614 -0.2163  0.3265
  194HFI     C1 2807   1.711   2.325   0.070 -0.3957 -0.8111  0.0962
  194HFI     C2 2808   1.853   2.355   0.109  0.4852  0.1278  0.0674
  194HFI     F1 2809   1.873   2.476   0.164  0.0978  0.1389  0.0108
  194HFI     F2 2810   1.933   2.355  -0.002 -0.0331  0.4989 -0.1888
  194HFI     F3 2811   1.904   2.259   0.190  0.0994  0.4604 -0.3387
  194HFI     C3 2812   1.687   2.200  -0.007  0.3617  0.3051 -0.2729
  194HFI     F4 2813   1.727   2.096   0.070  0.0537 -0.3834  0.5786
  194HFI     F5 2814   1.753   2.195  -0.132 -0.4031  0.2928 -0.0492
  194HFI     F6 2815   1.561   2.172  -0.038  0.3064 -0.1013  0.2501
  194HFI     H1 2816   1.692   2.516   0.026  0.9554 -1.0222  1.5774
  194HFI     H2 2817   1.659   2.305   0.165  0.6156  1.7141  1.2290
  195HFI     O1 2818   0.233   2.261   2.913 -0.2299 -0.8304  0.4141
  195HFI     C1 2819   0.336   2.170   2.871  0.3957 -0.2055  0.0668
  195HFI     C2 2820   0.401   2.097   2.988 -0.0764 -0.4685 -0.5773
  195HFI     F1 2821   0.447   2.180   3.080 -0.5989  0.4744 -0.4702
  195HFI     F2 2822   0.498   2.010   2.944  0.2360 -0.5870 -0.1682
  195HFI     F3 2823   0.307   2.021   3.042  0.2464 -0.5039 -0.6816
  195HFI     C3 2824   0.439   2.227   2.772  0.1444 -1.2169 -0.0586
  195HFI     F4 2825   0.533   2.303   2.834 -0.1331  0.3700  0.0167
  195HFI     F5 2826   0.379   2.317   2.703  0.8969  0.1779 -0.0553
  195HFI     F6 2827   0.498   2.134   2.694 -0.0415  0.5915  0.0117
  195HFI     H1 2828   0.232   2.260   3.010  0.2231 -1.4768  0.4092
  195HFI     H2 2829   0.288   2.087   2.818  0.0374  0.7978 -1.2016
  196HFI     O1 2830   2.663   0.368   2.496  0.4062 -0.2725  0.0774
  196HFI     C1 2831   2.565   0.460   2.429 -0.0448 -0.2372  0.3878
  196HFI     C2 2832   2.577   0.450   2.274  0.0956 -0.3593 -0.1132
  196HFI     F1 2833   2.684   0.513   2.236 -0.3470 -0.4769  0.0243
  196HFI     F2 2834   2.465   0.508   2.216 -0.3844  0.0009 -0.2779
  196HFI     F3 2835   2.581   0.320   2.226 -0.0993 -0.0665 -0.1557
  196HFI     C3 2836   2.555   0.606   2.488  0.3445  0.4331 -0.5609
  196HFI     F4 2837   2.677   0.635   2.542  0.3288 -0.0247 -0.2583
  196HFI     F5 2838   2.464   0.614   2.585  0.1246 -0.2931 -1.0020
  196HFI     F6 2839   2.520   0.702   2.398 -0.4628  0.0641 -0.1623
  196HFI     H1 2840   2.661   0.283   2.447  1.1741 -0.4682  0.3865
  196HFI     H2 2841   2.461   0.425   2.439 -0.8030  1.1396 -2.1924
  197HFI     O1 2842   0.113   1.336   3.192 -0.0283  0.0055  0.4355
  197HFI     C1 2843   0.026   1.426   3.269  0.1064  0.1173 -1.5022
  197HFI     C2 2844   0.004   1.559   3.194  0.1271  0.4156 -0.1089
  197HFI     F1 2845  -0.063   1.657   3.268 -0.4835 -0.2675 -0.1185
  197HFI     F2 2846  -0.066   1.533   3.081 -0.3955  0.0720 -0.3464
  197HFI     F3 2847   0.116   1.621   3.152  0.5982  0.1379 -0.7278
  197HFI     C3 2848   0.081   1.452   3.416  0.3048 -0.0693  0.7803
  197HFI     F4 2849   0.185   1.536   3.410  0.0457 -0.2565  0.3506
  197HFI     F5 2850   0.125   1.337   3.476 -0.7107 -0.4155 -0.1551
  197HFI     F6 2851  -0.017   1.499   3.502  0.1735 -1.0865  0.0887
  197HFI     H1 2852   0.200   1.380   3.182  0.0466 -0.4645 -1.1604
  197HFI     H2 2853  -0.072   1.378   3.280  0.2724  0.1941  0.3706
  198HFI     O1 2854   0.115   0.907   3.690 -0.1772  0.1185 -0.1879
  198HFI     C1 2855   0.062   1.027   3.752  1.2911  0.4333  0.3618
  198HFI     C2 2856   0.106   1.034   3.903 -0.6632  0.8767 -0.1097
  198HFI     F1 2857   0.018   0.974   3.986  0.1249  0.5143  0.4287
  198HFI     F2 2858   0.108   1.160   3.944  0.2229 -0.3033  0.1323
  198HFI     F3 2859   0.228   0.975   3.924 -0.2462 -0.6945 -0.7677
  198HFI     C3 2860  -0.093   1.038   3.720  0.0655 -0.2878  0.5060
  198HFI     F4 2861  -0.164   0.929   3.748 -0.4468 -0.3261  0.4869
  198HFI     F5 2862  -0.113   1.049   3.584  0.1632 -0.2791 -0.0029
  198HFI     F6 2863  -0.150   1.151   3.776  0.2736  0.0701  0.2539
  198HFI     H1 2864   0.043   0.854   3.653 -0.7888 -0.7335  2.1479
  198HFI     H2 2865   0.105   1.115   3.703 -0.9903  0.9970 -0.6846
  199HFI     O1 2866   2.785   0.562   3.579  0.1147  0.3228  0.2034
  199HFI     C1 2867   2.749   0.422   3.542 -0.3462 -0.0309  0.8619
  199HFI     C2 2868   2.671   0.416   3.411  0.2691  0.4636  0.0952
  199HFI     F1 2869   2.630   0.295   3.377 -0.2238 -0.1103 -0.1596
  199HFI     F2 2870   2.748   0.465   3.311  0.2219  0.2097 -0.8290
  199HFI     F3 2871   2.559   0.496   3.420 -0.1273  0.1052 -0.4360
  199HFI     C3 2872   2.686   0.333   3.658  0.2479  0.6022  0.3044
  199HFI     F4 2873   2.692   0.198   3.633  0.5838  0.0280  0.1469
  199HFI     F5 2874   2.555   0.358   3.675  0.0484 -0.4108  0.4045
  199HFI     F6 2875   2.748   0.363   3.775 -0.7543  0.4954  0.2823
  199HFI     H1 2876   2.722   0.628   3.545 -0.6396 -0.7568 -0.5229
  199HFI     H2 2877   2.845   0.371   3.523 -1.0821 -0.6039 -1.5180
  200HFI     O1 2878   0.073   1.554   2.462  0.3203 -0.1616 -0.0758
  200HFI     C1 2879   0.023   1.418   2.440  0.1730 -0.9293  0.0993
  200HFI     C2 2880   0.000   1.391   2.286 -0.6176 -0.0012  0.2705
  200HFI     F1 2881  -0.069   1.277   2.264  0.1888  0.0552  0.3751
  200HFI     F2 2882   0.131   1.382   2.233  0.5662  0.1452  0.1469
  200HFI     F3 2883  -0.067   1.491   2.220 -0.1128 -0.3390 -0.2460
  200HFI     C3 2884  -0.101   1.392   2.527  0.7470 -0.3330 -0.8102
  200HFI     F4 2885  -0.126   1.261   2.525  0.0080  0.2944 -0.5310
  200HFI     F5 2886  -0.206   1.459   2.480 -0.8550 -0.4273  0.0013
  200HFI     F6 2887  -0.084   1.437   2.659 -0.1123 -0.0513  0.1417
  200HFI     H1 2888  -0.000   1.617   2.451  0.6253 -0.0617 -1.6417
  200HFI     H2 2889   0.094   1.341   2.472 -0.0141 -0.4384  1.7538
  201HFI     O1 2890   1.229   0.423   1.264  0.0727  0.1030  0.2182
  201HFI     C1 2891   1.314   0.433   1.149 -0.9304 -0.3073  0.4389
  201HFI     C2 2892   1.273   0.549   1.064 -0.0825 -0.2604 -0.0463
  201HFI     F1 2893   1.145   0.546   1.038 -0.0909 -0.5270  0.2743
  201HFI     F2 2894   1.337   0.558   0.948 -0.4742 -0.0676  0.1409
  201HFI     F3 2895   1.298   0.662   1.131 -0.0932  0.5293  0.8597
  201HFI     C3 2896   1.329   0.296   1.062  0.5941  0.0975  0.1386
  201HFI     F4 2897   1.226   0.283   0.979  0.0708  0.4592  0.2203
  201HFI     F5 2898   1.320   0.187   1.143  0.0752  0.0420  0.3147
  201HFI     F6 2899   1.453   0.295   1.004 -0.1965  0.5344  0.0042
  201HFI     H1 2900   1.213   0.515   1.292 -0.1958  0.1927 -0.2178
  201HFI     H2 2901   1.415   0.455   1.185  0.6126 -3.5010 -1.6737
  202HFI     O1 2902   0.610   1.294   0.318  0.8544 -0.0662 -0.5142
  202HFI     C1 2903   0.745   1.255   0.341 -0.6784 -0.7809 -0.3469
  202HFI     C2 2904   0.828   1.216   0.217  1.0017  0.4691 -0.0989
  202HFI     F1 2905   0.795   1.296   0.113  0.1442 -0.0723 -0.4162
  202HFI     F2 2906   0.796   1.085   0.183 -0.3789  0.3200 -0.2972
  202HFI     F3 2907   0.967   1.225   0.234 -0.2165  0.4500  0.3157
  202HFI     C3 2908   0.761   1.146   0.456 -0.5876 -0.5685  0.0341
  202HFI     F4 2909   0.681   1.039   0.421 -0.5364  0.1775 -0.1009
  202HFI     F5 2910   0.715   1.202   0.571 -0.5039 -0.0882 -0.2369
  202HFI     F6 2911   0.889   1.116   0.471 -0.2985  0.0089  0.3312
  202HFI     H1 2912   0.559   1.299   0.401 -0.4953  1.4541 -1.3921
  202HFI     H2 2913   0.798   1.344   0.379 -1.3070 -0.0656 -1.1312
  203HFI     O1 2914   2.852   1.345   1.265 -0.5035 -0.1858 -0.1598
  203HFI     C1 2915   2.923   1.386   1.383 -0.2664  0.0103  0.3004
  203HFI     C2 2916   2.954   1.265   1.478  0.0077 -0.0042 -0.3208
  203HFI     F1 2917   2.997   1.308   1.596  0.5286 -0.1485  0.3346
  203HFI     F2 2918   3.055   1.191   1.421  0.1396 -0.5390 -0.2851
  203HFI     F3 2919   2.845   1.184   1.506  0.2753 -0.1493 -0.1959
  203HFI     C3 2920   2.844   1.505   1.453  0.6412  0.0693 -0.4165
  203HFI     F4 2921   2.915   1.558   1.558  0.1437 -0.2162  0.0723
  203HFI     F5 2922   2.732   1.462   1.511  0.0660  0.3179  0.3015
  203HFI     F6 2923   2.806   1.604   1.373  0.0784 -0.2251  0.4046
  203HFI     H1 2924   2.914   1.287   1.218  0.1461 -0.2537  0.7663
  203HFI     H2 2925   3.021   1.429   1.361 -0.5624  0.3610 -0.3283
  204HFI     O1 2926   1.795   1.676   3.168 -0.1974 -0.3668  0.2365
  204HFI     C1 2927   1.744   1.750   3.283 -0.4831 -0.4806 -0.8236
  204HFI     C2 2928   1.865   1.836   3.337  0.1949 -0.3887  0.3334
  204HFI     F1 2929   1.833   1.930   3.434 -0.0489  0.5424 -0.3268
  204HFI     F2 2930   1.924   1.903   3.235  0.1434  0.2025  0.3966
  204HFI     F3 2931   1.968   1.754   3.386  0.1306 -0.5053 -0.1308
  204HFI     C3 2932   1.674   1.655   3.383  0.2092 -0.1265  0.4352
  204HFI     F4 2933   1.741   1.547   3.413  0.0866  0.1269  0.3298
  204HFI     F5 2934   1.549   1.616   3.336 -1.0461  0.1643  0.1968
  204HFI     F6 2935   1.643   1.721   3.500  0.6659 -0.8540  0.5415
  204HFI     H1 2936   1.860   1.734   3.124 -0.1476  0.1559  0.9815
  204HFI     H2 2937   1.666   1.817   3.245 -1.1111  0.2554  1.6823
  205HFI     O1 2938   2.192   2.199   2.510  0.0788 -0.1295  0.1875
  205HFI     C1 2939   2.261   2.318   2.461 -0.2353 -0.2350  0.8054
  205HFI     C2 2940   2.204   2.448   2.529  0.0990 -0.4155  0.3400
  205HFI     F1 2941   2.290   2.555   2.529  0.8551  0.3344 -0.4706
  205HFI     F2 2942   2.187   2.430   2.660  0.4850  0.3154  0.5676
  205HFI     F3 2943   2.084   2.484   2.488  0.0572  0.1323  0.2175
  205HFI     C3 2944   2.258   2.325   2.303  0.0313 -0.0345  0.3439
  205HFI     F4 2945   2.334   2.223   2.250  0.2129  0.1280 -0.5701
  205HFI     F5 2946   2.302   2.442   2.255 -0.1364 -0.0227 -0.1166
  205HFI     F6 2947   2.132   2.306   2.261  0.2655  0.0051 -0.3972
  205HFI     H1 2948   2.135   2.170   2.436 -0.8840 -0.5080  1.0642
  205HFI     H2 2949   2.365   2.318   2.496  0.9336 -1.0454 -2.5164
  206HFI     O1 2950   0.611   0.856   3.118 -0.4915  0.2873  0.2807
  206HFI     C1 2951   0.612   0.889   2.974  0.3820 -0.1208  0.1187
  206HFI     C2 2952   0.573   0.768   2.887  0.4217  0.2390 -0.0908
  206HFI     F1 2953   0.525   0.809   2.769  0.7879 -0.0132  0.3952
  206HFI     F2 2954   0.480   0.688   2.948 -0.6190 -0.3937 -0.1005
  206HFI     F3 2955   0.680   0.687   2.878 -0.4994  0.5668 -0.1931
  206HFI     C3 2956   0.746   0.946   2.924 -0.6280 -0.1314 -0.3831
  206HFI     F4 2957   0.849   0.893   2.985  0.0388  0.4310 -0.1877
  206HFI     F5 2958   0.745   1.075   2.954  0.2601  0.1478 -0.9682
  206HFI     F6 2959   0.762   0.933   2.786 -0.1519  0.2366 -0.0365
  206HFI     H1 2960   0.526   0.811   3.134  0.0816 -1.1956 -0.6994
  206HFI     H2 2961   0.521   0.949   2.960  0.0298 -0.7325 -0.2405
  207HFI     O1 2962   3.357   0.357   2.837 -0.5303  0.4144 -0.3242
  207HFI     C1 2963   3.468   0.425   2.770  0.0525 -0.0564 -0.6752
  207HFI     C2 2964   3.604   0.377   2.826 -0.2770  0.0666 -0.0780
  207HFI     F1 2965   3.626   0.248   2.788 -0.0842 -0.1751 -0.1235
  207HFI     F2 2966   3.617   0.381   2.963  0.0217  0.6449  0.3792
  207HFI     F3 2967   3.713   0.446   2.773  0.4720  0.1300  0.8231
  207HFI     C3 2968   3.450   0.582   2.762  0.2383 -0.3790 -0.1486
  207HFI     F4 2969   3.561   0.650   2.799  0.2490  0.0561  0.1649
  207HFI     F5 2970   3.350   0.628   2.836 -0.2459 -0.2554 -0.1496
  207HFI     F6 2971   3.416   0.621   2.639  0.3365  0.0874 -0.0994
  207HFI     H1 2972   3.300   0.430   2.866 -0.8391  0.5935 -1.3859
  207HFI     H2 2973   3.467   0.399   2.663  1.2118 -4.6417  0.3396
  208HFI     O1 2974   2.565   2.757   2.834  0.3403 -0.6080  0.3639
  208HFI     C1 2975   2.549   2.680   2.709 -0.5648  0.1678  0.0453
  208HFI     C2 2976   2.555   2.534   2.743  0.0115 -0.3630 -0.2135
  208HFI     F1 2977   2.552   2.458   2.632  0.5732 -0.1252 -0.7653
  208HFI     F2 2978   2.446   2.499   2.821  0.0374  0.3522 -0.3713
  208HFI     F3 2979   2.668   2.504   2.815 -0.4168 -0.2947  0.3719
  208HFI     C3 2980   2.656   2.730   2.615  0.1171  0.4282 -0.0457
  208HFI     F4 2981   2.626   2.683   2.491  0.3582  0.3423  0.5681
  208HFI     F5 2982   2.777   2.688   2.643 -0.3396 -0.4517  0.1708
  208HFI     F6 2983   2.664   2.863   2.616  0.0610 -0.4676  0.6228
  208HFI     H1 2984   2.659   2.774   2.852  0.0519  1.8148 -0.3292
  208HFI     H2 2985   2.448   2.693   2.666  0.8829 -0.0229 -3.6529
  209HFI     O1 2986   0.390   3.007   0.059 -0.0023  0.2855  0.4266
  209HFI     C1 2987   0.367   2.898   0.152  0.2320 -0.3880  0.3622
  209HFI     C2 2988   0.502   2.852   0.210  0.4673  0.8603  0.2732
  209HFI     F1 2989   0.493   2.733   0.275  0.3281 -0.3091  0.0113
  209HFI     F2 2990   0.538   2.953   0.293 -0.8497  0.6656  0.2451
  209HFI     F3 2991   0.597   2.835   0.113 -0.1456  0.5500 -0.0224
  209HFI     C3 2992   0.277   2.791   0.095  0.3982 -0.1314 -0.3344
  209HFI     F4 2993   0.221   2.726   0.199  0.1936 -0.1635  0.1747
  209HFI     F5 2994   0.351   2.710   0.016  0.0111 -0.2534  0.3967
  209HFI     F6 2995   0.175   2.851   0.027  0.1990  0.5316  0.4856
  209HFI     H1 2996   0.312   3.031   0.007 -0.4604 -3.0732 -0.5670
  209HFI     H2 2997   0.320   2.939   0.242 -1.4962 -1.6415  0.0502
  210HFI     O1 2998   0.231   0.144   3.119  0.4698  0.0018  0.3104
  210HFI     C1 2999   0.306   0.026   3.073  0.2933  0.7133 -0.4600
  210HFI     C2 3000   0.218  -0.069   2.980  0.0301  0.2535 -0.1333
  210HFI     F1 3001   0.111  -0.128   3.037  0.1170 -0.6462  0.5724
  210HFI     F2 3002   0.298  -0.162   2.920  0.3165  0.1509 -0.4263
  210HFI     F3 3003   0.163   0.007   2.884  0.3283 -0.2940  0.7263
  210HFI     C3 3004   0.370  -0.038   3.207 -0.2979 -0.0280  0.3848
  210HFI     F4 3005   0.449   0.060   3.260  0.0842 -0.2670 -1.0808
  210HFI     F5 3006   0.450  -0.151   3.182 -0.4523 -0.1311  0.0285
  210HFI     F6 3007   0.271  -0.071   3.296  0.5498  0.0313 -0.0503
  210HFI     H1 3008   0.148   0.165   3.073  0.7746 -1.3551 -0.8923
  210HFI     H2 3009   0.392   0.062   3.014  1.0223  0.0666  0.1953
  211HFI     O1 3010   3.016   3.021   0.334 -0.1147 -0.1528 -0.1302
  211HFI     C1 3011   3.118   2.959   0.256 -0.7253  0.3361 -0.6052
  211HFI     C2 3012   3.240   3.048   0.254  0.5008 -1.0700 -0.7745
  211HFI     F1 3013   3.235   3.169   0.187 -0.2690  0.4960 -0.5972
  211HFI     F2 3014   3.340   2.977   0.186  0.2044 -0.2935  0.4180
  211HFI     F3 3015   3.283   3.079   0.383  0.4856  0.5013  0.2777
  211HFI     C3 3016   3.063   2.916   0.119  0.0181 -0.9944 -0.2630
  211HFI     F4 3017   2.969   2.820   0.117 -0.5584  0.2927 -0.2918
  211HFI     F5 3018   3.164   2.867   0.043 -0.2494 -0.6947  0.0748
  211HFI     F6 3019   3.010   3.026   0.058  0.1769  0.2461  0.3603
  211HFI     H1 3020   2.965   3.076   0.272 -1.7018 -2.4994 -0.9810
  211HFI     H2 3021   3.154   2.868   0.306  0.0682  1.8842  1.7637
  212HFI     O1 3022   0.576   0.972   0.913 -0.3089  0.1617 -0.4861
  212HFI     C1 3023   0.482   0.888   0.990  0.3957  1.0137 -0.1127
  212HFI     C2 3024   0.437   0.966   1.110  0.0151 -0.2242 -0.6215
  212HFI     F1 3025   0.393   1.086   1.073 -0.0564  0.5087 -0.4178
  212HFI     F2 3026   0.538   0.988   1.199  0.2516  0.3932 -0.0090
  212HFI     F3 3027   0.343   0.901   1.184  0.3799  0.3041  0.3236
  212HFI     C3 3028   0.547   0.745   1.022  0.2323 -0.2340 -0.8002
  212HFI     F4 3029   0.466   0.678   1.110  0.1368  0.3182 -0.1577
  212HFI     F5 3030   0.671   0.760   1.074 -0.2077  0.0593 -0.4269
  212HFI     F6 3031   0.566   0.670   0.907 -0.0551  0.6876 -0.3384
  212HFI     H1 3032   0.623   0.920   0.845 -0.0495 -2.3483  1.5301
  212HFI     H2 3033   0.392   0.863   0.932  0.2353 -1.9459  1.3005
  213HFI     O1 3034   0.555   0.893   0.148 -0.0973  0.3084  0.1075
  213HFI     C1 3035   0.650   0.807   0.068 -0.5741 -0.4243  0.1928
  213HFI     C2 3036   0.681   0.867  -0.071 -0.6570 -0.6712 -0.1500
  213HFI     F1 3037   0.624   0.802  -0.173  0.1097  0.0626  0.3863
  213HFI     F2 3038   0.818   0.858  -0.096 -0.4170  0.1266  0.2195
  213HFI     F3 3039   0.653   0.997  -0.085 -0.0784 -0.2083 -0.2243
  213HFI     C3 3040   0.622   0.657   0.067  0.1732 -1.2004 -0.8235
  213HFI     F4 3041   0.504   0.629  -0.006 -0.0218  0.1867 -0.3163
  213HFI     F5 3042   0.595   0.615   0.196 -0.1775  0.5868  0.3804
  213HFI     F6 3043   0.722   0.580   0.024 -0.9436 -0.2865 -0.1003
  213HFI     H1 3044   0.546   0.977   0.102 -0.2230  0.3485  0.2051
  213HFI     H2 3045   0.742   0.806   0.127  1.4129  1.4857 -2.7241
  214HFI     O1 3046   3.291   0.623   3.621  0.1477  0.5630  0.6119
  214HFI     C1 3047   3.266   0.533   3.733  0.3227 -0.0985 -0.3586
  214HFI     C2 3048   3.117   0.494   3.751 -0.3924  0.6275  0.6201
  214HFI     F1 3049   3.039   0.608   3.722  0.6864  0.0316  0.0200
  214HFI     F2 3050   3.089   0.451   3.877  0.3653  0.2892  0.8352
  214HFI     F3 3051   3.068   0.398   3.666 -0.4380  0.8635  0.2540
  214HFI     C3 3052   3.325   0.581   3.858 -0.0706 -0.0788  0.0376
  214HFI     F4 3053   3.244   0.670   3.919  0.0234 -0.0813 -0.0408
  214HFI     F5 3054   3.448   0.636   3.834  0.5293 -1.0556  0.0444
  214HFI     F6 3055   3.341   0.473   3.944 -0.4893 -0.8385  0.1008
  214HFI     H1 3056   3.225   0.606   3.551 -0.0073 -0.8176  1.0619
  214HFI     H2 3057   3.305   0.432   3.713 -3.0699 -1.8116  1.2831
  215HFI     O1 3058   3.196   0.119   2.877  0.1525  0.2049 -0.5317
  215HFI     C1 3059   3.190   0.005   2.782 -0.6219  0.2540  0.3612
  215HFI     C2 3060   3.251   0.047   2.648 -0.1432 -0.3771  0.4250
  215HFI     F1 3061   3.378   0.078   2.667 -0.2053  0.6211 -0.4704
  215HFI     F2 3062   3.190   0.164   2.604  0.3084  0.9365 -0.2165
  215HFI     F3 3063   3.243  -0.048   2.554 -0.4941  0.0418  0.3077
  215HFI     C3 3064   3.052  -0.053   2.775  0.5245 -0.0552 -0.4373
  215HFI     F4 3065   2.997  -0.093   2.894  0.0614 -0.3591  0.0978
  215HFI     F5 3066   3.049  -0.164   2.706  0.0314  0.0752  0.3953
  215HFI     F6 3067   2.961   0.030   2.725  0.6122  0.1790  0.2888
  215HFI     H1 3068   3.270   0.179   2.857 -0.3800  0.9658 -0.2421
  215HFI     H2 3069   3.254  -0.073   2.825  0.6398  1.1781  0.1961
  216HFI     O1 3070   0.101   2.957   2.251  0.1036 -0.1969 -0.4601
  216HFI     C1 3071   0.154   3.094   2.249 -1.0783 -0.0097 -0.1104
  216HFI     C2 3072   0.309   3.108   2.271 -0.1162 -0.2071 -0.2410
  216HFI     F1 3073   0.365   3.210   2.207  0.2516 -0.0433 -0.4054
  216HFI     F2 3074   0.364   2.998   2.219 -0.7152 -0.1967 -0.3147
  216HFI     F3 3075   0.338   3.128   2.395 -0.3363  0.1716  0.1509
  216HFI     C3 3076   0.069   3.204   2.308  0.0731 -0.6013  1.4517
  216HFI     F4 3077   0.046   3.172   2.436  0.2999 -0.0911 -0.6560
  216HFI     F5 3078  -0.049   3.215   2.246 -0.0188 -0.1811  0.1715
  216HFI     F6 3079   0.121   3.325   2.313 -0.6630 -0.0241 -0.4008
  216HFI     H1 3080   0.054   2.944   2.335  0.2116 -1.8900 -0.6538
  216HFI     H2 3081   0.144   3.128   2.145 -1.7062  2.0338  0.5949
  217HFI     O1 3082   3.400   0.949   0.535 -0.0043 -0.3545  0.0025
  217HFI     C1 3083   3.269   0.944   0.480  0.1706  0.4402  0.0897
  217HFI     C2 3084   3.203   1.078   0.474 -0.2680 -0.1064 -0.6251
  217HFI     F1 3085   3.290   1.162   0.423  0.0480  0.4087  0.2611
  217HFI     F2 3086   3.163   1.133   0.589  0.4107 -0.3325 -0.6411
  217HFI     F3 3087   3.099   1.082   0.385  0.0551  0.0583  0.0379
  217HFI     C3 3088   3.180   0.831   0.550 -0.4741  0.8496 -0.0443
  217HFI     F4 3089   3.061   0.808   0.490 -0.1868 -0.4012 -0.1197
  217HFI     F5 3090   3.145   0.865   0.683 -0.2660  0.1488 -0.3593
  217HFI     F6 3091   3.245   0.716   0.554 -0.4582 -0.5847 -0.2173
  217HFI     H1 3092   3.449   0.868   0.517 -1.2729 -0.7189 -1.9779
  217HFI     H2 3093   3.274   0.900   0.380 -0.1447 -1.0367  0.7131
  218HFI     O1 3094   2.274   0.183   3.623  0.2883  0.2482  0.1405
  218HFI     C1 3095   2.202   0.131   3.509 -0.6565 -0.1642 -0.0947
  218HFI     C2 3096   2.099   0.235   3.450 -0.5280  0.0013 -0.1753
  218HFI     F1 3097   2.031   0.300   3.551  0.4570  0.3494 -0.1264
  218HFI     F2 3098   2.009   0.175   3.362 -0.9055  0.4554 -0.9381
  218HFI     F3 3099   2.166   0.330   3.374  0.0502  0.0302 -0.2933
  218HFI     C3 3100   2.142  -0.015   3.540 -0.7224 -0.5060  0.3846
  218HFI     F4 3101   2.105  -0.070   3.425 -0.0280 -0.1434  0.3664
  218HFI     F5 3102   2.036  -0.005   3.628  0.1050  0.2824  0.0837
  218HFI     F6 3103   2.234  -0.093   3.598  0.2065  0.7303  0.0855
  218HFI     H1 3104   2.211   0.242   3.667  0.8780  0.0063  1.3337
  218HFI     H2 3105   2.273   0.114   3.427 -0.5534  0.1443 -0.0667
  219HFI     O1 3106   0.111   2.043   1.575  0.6582  0.2697 -0.1905
  219HFI     C1 3107   0.122   2.148   1.470 -0.7283  0.1918 -0.2248
  219HFI     C2 3108   0.233   2.119   1.360  0.6149  0.0240  0.1421
  219HFI     F1 3109   0.359   2.154   1.388  0.1258 -0.1985 -0.0676
  219HFI     F2 3110   0.207   2.175   1.239 -0.3659 -0.2850  0.3872
  219HFI     F3 3111   0.231   1.988   1.337 -0.1363  0.2218  0.5188
  219HFI     C3 3112   0.116   2.298   1.520  0.5173  0.0370 -0.1811
  219HFI     F4 3113   0.136   2.390   1.423  0.8346  0.1873 -0.8179
  219HFI     F5 3114   0.198   2.311   1.623  0.2563  0.6522  0.6383
  219HFI     F6 3115  -0.007   2.313   1.562 -0.4513 -0.3374  0.2088
  219HFI     H1 3116   0.055   2.076   1.646  1.0444 -1.0061  0.7317
  219HFI     H2 3117   0.028   2.148   1.413 -0.6031 -0.5361 -0.4318
  220HFI     O1 3118   1.565   1.461   3.072  0.1586  0.3424  0.4307
  220HFI     C1 3119   1.560   1.314   3.064 -0.4708  0.1547  0.7455
  220HFI     C2 3120   1.617   1.250   3.192 -0.2848 -0.7083 -0.1905
  220HFI     F1 3121   1.747   1.265   3.207 -0.0237  0.2590  0.1915
  220HFI     F2 3122   1.590   1.123   3.203  0.0053 -0.7697 -0.1347
  220HFI     F3 3123   1.565   1.305   3.303 -0.2876 -0.4206  0.0524
  220HFI     C3 3124   1.641   1.273   2.942 -0.2631 -0.1699 -0.1159
  220HFI     F4 3125   1.689   1.151   2.956 -0.1026 -0.4433  0.2173
  220HFI     F5 3126   1.744   1.353   2.905 -0.4397  0.1808 -0.1369
  220HFI     F6 3127   1.554   1.277   2.832  0.1997  0.4402 -0.3573
  220HFI     H1 3128   1.510   1.507   3.006  0.4927  0.5193  0.2725
  220HFI     H2 3129   1.457   1.276   3.061  0.0142 -1.1476  0.2591
  221HFI     O1 3130   3.381   0.901   2.988 -0.2142  0.0215 -0.3597
  221HFI     C1 3131   3.448   1.012   2.939 -0.3393 -0.6408 -0.0359
  221HFI     C2 3132   3.429   1.020   2.780 -0.5973 -0.7318  0.9924
  221HFI     F1 3133   3.303   1.032   2.759 -0.6269  0.3195 -0.1655
  221HFI     F2 3134   3.475   0.916   2.717  0.6357 -0.8328  0.1345
  221HFI     F3 3135   3.492   1.124   2.731 -0.2772 -0.4008 -0.3765
  221HFI     C3 3136   3.586   1.023   2.996  0.0060  0.1612  0.0105
  221HFI     F4 3137   3.679   0.940   2.940 -0.0873 -0.1223  0.1168
  221HFI     F5 3138   3.582   0.997   3.129 -0.3213 -0.7629  0.0571
  221HFI     F6 3139   3.638   1.147   2.977  0.0281 -0.4325  0.2454
  221HFI     H1 3140   3.319   0.861   2.924  0.8791  0.0988 -1.4827
  221HFI     H2 3141   3.395   1.102   2.975 -2.0992 -1.8227  0.3939
  222HFI     O1 3142   0.772   3.006   1.040  0.1300  0.3527 -0.0415
  222HFI     C1 3143   0.781   3.134   0.965  0.0205  0.4959 -0.4564
  222HFI     C2 3144   0.889   3.120   0.856  0.6588 -0.1303 -0.5807
  222HFI     F1 3145   0.867   3.215   0.764 -0.1288 -0.2430 -0.1523
  222HFI     F2 3146   0.875   3.001   0.789  0.0887  0.1005  0.4784
  222HFI     F3 3147   1.024   3.119   0.888 -0.5142 -0.7675  1.1326
  222HFI     C3 3148   0.809   3.255   1.060  0.5106  0.1433  0.3566
  222HFI     F4 3149   0.760   3.366   0.998  0.1397 -0.8339  0.2344
  222HFI     F5 3150   0.944   3.280   1.092  0.2389 -0.0925  0.5269
  222HFI     F6 3151   0.746   3.243   1.180 -0.1713  0.0221  0.1478
  222HFI     H1 3152   0.853   2.984   1.090  0.0847  1.7356  0.6777
  222HFI     H2 3153   0.686   3.157   0.915 -0.3419 -1.1172 -0.5278
  223HFI     O1 3154   0.696   3.138   0.077 -0.2328 -0.1512 -0.3407
  223HFI     C1 3155   0.705   3.067  -0.054  0.1524  0.0792  0.2104
  223HFI     C2 3156   0.845   2.999  -0.079 -0.0572 -0.1477  0.0636
  223HFI     F1 3157   0.827   2.903  -0.165 -0.4689  0.2768  0.5099
  223HFI     F2 3158   0.908   2.954   0.038  0.1820  0.5270 -0.1186
  223HFI     F3 3159   0.935   3.075  -0.140 -0.0114 -0.0651 -0.1961
  223HFI     C3 3160   0.671   3.173  -0.164 -0.2899 -0.9449  0.8193
  223HFI     F4 3161   0.542   3.221  -0.144  0.3358 -1.0552  0.6916
  223HFI     F5 3162   0.671   3.119  -0.287  0.7231 -0.9125  0.2061
  223HFI     F6 3163   0.758   3.280  -0.162  0.0096 -0.4269  0.4518
  223HFI     H1 3164   0.631   3.210   0.072 -1.6296 -1.3034  0.7821
  223HFI     H2 3165   0.624   2.994  -0.064  2.3017 -2.3548  0.0489
  224HFI     O1 3166   2.682   0.995   0.748 -0.5009 -0.3128 -0.2995
  224HFI     C1 3167   2.703   1.133   0.690  0.0834  0.4834  0.1000
  224HFI     C2 3168   2.738   1.124   0.540  0.4570 -0.0913  0.0099
  224HFI     F1 3169   2.657   1.031   0.478  0.3614 -0.3180  0.1077
  224HFI     F2 3170   2.863   1.080   0.528 -0.1336 -0.9597 -0.3604
  224HFI     F3 3171   2.727   1.240   0.474  0.4305  0.2255 -0.1241
  224HFI     C3 3172   2.821   1.206   0.761 -0.4689  0.5732 -0.8702
  224HFI     F4 3173   2.882   1.308   0.684 -0.0061 -0.3010 -0.0436
  224HFI     F5 3174   2.922   1.123   0.802  0.1368 -0.2623 -0.8068
  224HFI     F6 3175   2.771   1.273   0.869  0.1425 -0.2387  0.0703
  224HFI     H1 3176   2.677   0.995   0.845  0.6792  0.9655 -0.2237
  224HFI     H2 3177   2.619   1.203   0.696  0.1877  0.5061  1.4911
  225HFI     O1 3178   1.572   0.049   2.957 -0.7798 -0.1897 -0.8227
  225HFI     C1 3179   1.467   0.019   2.866 -0.1123 -0.3343  0.6310
  225HFI     C2 3180   1.527   0.041   2.724 -0.6519 -0.3380  0.0699
  225HFI     F1 3181   1.457  -0.036   2.637 -0.0819  0.3271 -0.1708
  225HFI     F2 3182   1.652  -0.001   2.731  0.5204  0.0382  0.6849
  225HFI     F3 3183   1.525   0.169   2.680 -0.0655  0.7304 -0.2167
  225HFI     C3 3184   1.336   0.094   2.896  0.4014  0.3167 -0.3102
  225HFI     F4 3185   1.363   0.225   2.901 -0.0105  0.5230 -0.1000
  225HFI     F5 3186   1.277   0.053   3.011  0.3695  0.3865 -0.0614
  225HFI     F6 3187   1.246   0.067   2.797 -0.0766 -0.0068  0.0209
  225HFI     H1 3188   1.580   0.142   2.984  2.0993 -0.8434  0.7311
  225HFI     H2 3189   1.445  -0.088   2.876  0.7690 -0.5496  0.3019
  226HFI     O1 3190   3.128   2.544   1.149  0.7472  0.5853 -0.3668
  226HFI     C1 3191   3.004   2.531   1.071  0.7061  0.6555 -0.3528
  226HFI     C2 3192   2.935   2.668   1.051  0.7544 -0.4005 -0.3483
  226HFI     F1 3193   2.846   2.673   0.951  0.4235 -0.4249 -0.1904
  226HFI     F2 3194   3.022   2.760   1.011 -0.3996  0.4763 -0.5242
  226HFI     F3 3195   2.873   2.719   1.161 -0.3621 -0.3459  0.0002
  226HFI     C3 3196   2.910   2.428   1.124 -0.5327  0.7358 -0.4133
  226HFI     F4 3197   2.869   2.459   1.252  0.1560  0.6203  0.1141
  226HFI     F5 3198   2.979   2.317   1.122 -0.3033 -0.2853  0.0496
  226HFI     F6 3199   2.804   2.405   1.042 -0.0142  0.1857  0.3944
  226HFI     H1 3200   3.117   2.600   1.227 -1.0067  1.0164 -0.9083
  226HFI     H2 3201   3.032   2.491   0.973  1.8022  1.1767 -0.2490
  227HFI     O1 3202   1.665   2.061   2.518 -0.2552 -0.1066 -0.3825
  227HFI     C1 3203   1.750   2.001   2.421 -0.3901  0.7451 -0.0119
  227HFI     C2 3204   1.818   2.103   2.325  0.5724  0.1413 -0.4567
  227HFI     F1 3205   1.899   2.041   2.245  0.4814  0.3107 -0.5796
  227HFI     F2 3206   1.894   2.197   2.385  0.0128  0.1896 -0.0612
  227HFI     F3 3207   1.728   2.170   2.244 -0.4492 -0.5232  0.7098
  227HFI     C3 3208   1.679   1.885   2.340  0.9043 -0.2743 -0.7543
  227HFI     F4 3209   1.776   1.814   2.276 -0.4721 -0.6387  0.0068
  227HFI     F5 3210   1.584   1.935   2.256  0.4212  0.7182  0.1436
  227HFI     F6 3211   1.618   1.804   2.427 -0.0143  0.2363 -0.3411
  227HFI     H1 3212   1.595   2.110   2.471  2.8456  2.9105 -2.1238
  227HFI     H2 3213   1.829   1.949   2.476 -1.1740 -0.4228  0.0278
  228HFI     O1 3214   0.199   3.006   3.596 -0.2983 -0.4352  0.1263
  228HFI     C1 3215   0.157   3.109   3.500  0.0046  0.4140 -0.0587
  228HFI     C2 3216   0.015   3.164   3.534 -0.2527 -0.1833 -0.1339
  228HFI     F1 3217  -0.079   3.065   3.503 -0.1428  0.4229 -0.4917
  228HFI     F2 3218  -0.013   3.268   3.461  0.2939 -0.0378  0.2418
  228HFI     F3 3219  -0.000   3.202   3.666  0.1691  0.3523 -0.5592
  228HFI     C3 3220   0.176   3.070   3.353 -0.5025 -0.0830 -0.0439
  228HFI     F4 3221   0.111   2.959   3.329 -0.2675 -0.0081  0.3723
  228HFI     F5 3222   0.307   3.052   3.318 -0.3638 -0.1256 -0.1709
  228HFI     F6 3223   0.117   3.154   3.271  0.6720 -0.2142 -0.1276
  228HFI     H1 3224   0.181   2.918   3.560  0.3533 -0.4460 -0.1744
  228HFI     H2 3225   0.221   3.195   3.522  1.9870 -1.4610  1.6519
   3.40320   3.43847   3.80000
