DMF comparator n4
 4173
    1GR      C1    1   0.000   0.000   1.900
    1GR      C2    2   0.142   0.000   1.900
    1GR      C3    3   0.213   0.123   1.900
    1GR      C4    4   0.354   0.123   1.900
    1GR      C5    5   0.000   0.246   1.900
    1GR      C6    6   0.142   0.246   1.900
    1GR      C7    7   0.213   0.368   1.900
    1GR      C8    8   0.354   0.368   1.900
    1GR      C9    9   0.000   0.491   1.900
    1GR     C10   10   0.142   0.491   1.900
    1GR     C11   11   0.213   0.614   1.900
    1GR     C12   12   0.354   0.614   1.900
    1GR     C13   13   0.000   0.737   1.900
    1GR     C14   14   0.142   0.737   1.900
    1GR     C15   15   0.213   0.860   1.900
    1GR     C16   16   0.354   0.860   1.900
    1GR     C17   17   0.000   0.982   1.900
    1GR     C18   18   0.142   0.982   1.900
    1GR     C19   19   0.213   1.105   1.900
    1GR     C20   20   0.354   1.105   1.900
    1GR     C21   21   0.000   1.228   1.900
    1GR     C22   22   0.142   1.228   1.900
    1GR     C23   23   0.213   1.351   1.900
    1GR     C24   24   0.354   1.351   1.900
    1GR     C25   25   0.000   1.474   1.900
    1GR     C26   26   0.142   1.474   1.900
    1GR     C27   27   0.213   1.596   1.900
    1GR     C28   28   0.354   1.596   1.900
    1GR     C29   29   0.000   1.719   1.900
    1GR     C30   30   0.142   1.719   1.900
    1GR     C31   31   0.213   1.842   1.900
    1GR     C32   32   0.354   1.842   1.900
    1GR     C33   33   0.000   1.965   1.900
    1GR     C34   34   0.142   1.965   1.900
    1GR     C35   35   0.213   2.088   1.900
    1GR     C36   36   0.354   2.088   1.900
    1GR     C37   37   0.000   2.210   1.900
    1GR     C38   38   0.142   2.210   1.900
    1GR     C39   39   0.213   2.333   1.900
    1GR     C40   40   0.354   2.333   1.900
    1GR     C41   41   0.000   2.456   1.900
    1GR     C42   42   0.142   2.456   1.900
    1GR     C43   43   0.213   2.579   1.900
    1GR     C44   44   0.354   2.579   1.900
    1GR     C45   45   0.000   2.702   1.900
    1GR     C46   46   0.142   2.702   1.900
    1GR     C47   47   0.213   2.824   1.900
    1GR     C48   48   0.354   2.824   1.900
    1GR     C49   49   0.000   2.947   1.900
    1GR     C50   50   0.142   2.947   1.900
    1GR     C51   51   0.213   3.070   1.900
    1GR     C52   52   0.354   3.070   1.900
    1GR     C53   53   0.000   3.193   1.900
    1GR     C54   54   0.142   3.193   1.900
    1GR     C55   55   0.213   3.316   1.900
    1GR     C56   56   0.354   3.316   1.900
    1GR     C57   57   0.425   0.000   1.900
    1GR     C58   58   0.567   0.000   1.900
    1GR     C59   59   0.638   0.123   1.900
    1GR     C60   60   0.780   0.123   1.900
    1GR     C61   61   0.425   0.246   1.900
    1GR     C62   62   0.567   0.246   1.900
    1GR     C63   63   0.638   0.368   1.900
    1GR     C64   64   0.780   0.368   1.900
    1GR     C65   65   0.425   0.491   1.900
    1GR     C66   66   0.567   0.491   1.900
    1GR     C67   67   0.638   0.614   1.900
    1GR     C68   68   0.780   0.614   1.900
    1GR     C69   69   0.425   0.737   1.900
    1GR     C70   70   0.567   0.737   1.900
    1GR     C71   71   0.638   0.860   1.900
    1GR     C72   72   0.780   0.860   1.900
    1GR     C73   73   0.425   0.982   1.900
    1GR     C74   74   0.567   0.982   1.900
    1GR     C75   75   0.638   1.105   1.900
    1GR     C76   76   0.780   1.105   1.900
    1GR     C77   77   0.425   1.228   1.900
    1GR     C78   78   0.567   1.228   1.900
    1GR     C79   79   0.638   1.351   1.900
    1GR     C80   80   0.780   1.351   1.900
    1GR     C81   81   0.425   1.474   1.900
    1GR     C82   82   0.567   1.474   1.900
    1GR     C83   83   0.638   1.596   1.900
    1GR     C84   84   0.780   1.596   1.900
    1GR     C85   85   0.425   1.719   1.900
    1GR     C86   86   0.567   1.719   1.900
    1GR     C87   87   0.638   1.842   1.900
    1GR     C88   88   0.780   1.842   1.900
    1GR     C89   89   0.425   1.965   1.900
    1GR     C90   90   0.567   1.965   1.900
    1GR     C91   91   0.638   2.088   1.900
    1GR     C92   92   0.780   2.088   1.900
    1GR     C93   93   0.425   2.210   1.900
    1GR     C94   94   0.567   2.210   1.900
    1GR     C95   95   0.638   2.333   1.900
    1GR     C96   96   0.780   2.333   1.900
    1GR     C97   97   0.425   2.456   1.900
    1GR     C98   98   0.567   2.456   1.900
    1GR     C99   99   0.638   2.579   1.900
    1GR    C100  100   0.780   2.579   1.900
    1GR    C101  101   0.425   2.702   1.900
    1GR    C102  102   0.567   2.702   1.900
    1GR    C103  103   0.638   2.824   1.900
    1GR    C104  104   0.780   2.824   1.900
    1GR    C105  105   0.425   2.947   1.900
    1GR    C106  106   0.567   2.947   1.900
    1GR    C107  107   0.638   3.070   1.900
    1GR    C108  108   0.780   3.070   1.900
    1GR    C109  109   0.425   3.193   1.900
    1GR    C110  110   0.567   3.193   1.900
    1GR    C111  111   0.638   3.316   1.900
    1GR    C112  112   0.780   3.316   1.900
    1GR    C113  113   0.851   0.000   1.900
    1GR    C114  114   0.993   0.000   1.900
    1GR    C115  115   1.064   0.123   1.900
    1GR    C116  116   1.205   0.123   1.900
    1GR    C117  117   0.851   0.246   1.900
    1GR    C118  118   0.993   0.246   1.900
    1GR    C119  119   1.064   0.368   1.900
    1GR    C120  120   1.205   0.368   1.900
    1GR    C121  121   0.851   0.491   1.900
    1GR    C122  122   0.993   0.491   1.900
    1GR    C123  123   1.064   0.614   1.900
    1GR    C124  124   1.205   0.614   1.900
    1GR    C125  125   0.851   0.737   1.900
    1GR    C126  126   0.993   0.737   1.900
    1GR    C127  127   1.064   0.860   1.900
    1GR    C128  128   1.205   0.860   1.900
    1GR    C129  129   0.851   0.982   1.900
    1GR    C130  130   0.993   0.982   1.900
    1GR    C131  131   1.064   1.105   1.900
    1GR    C132  132   1.205   1.105   1.900
    1GR    C133  133   0.851   1.228   1.900
    1GR    C134  134   0.993   1.228   1.900
    1GR    C135  135   1.064   1.351   1.900
    1GR    C136  136   1.205   1.351   1.900
    1GR    C137  137   0.851   1.474   1.900
    1GR    C138  138   0.993   1.474   1.900
    1GR    C139  139   1.064   1.596   1.900
    1GR    C140  140   1.205   1.596   1.900
    1GR    C141  141   0.851   1.719   1.900
    1GR    C142  142   0.993   1.719   1.900
    1GR    C143  143   1.064   1.842   1.900
    1GR    C144  144   1.205   1.842   1.900
    1GR    C145  145   0.851   1.965   1.900
    1GR    C146  146   0.993   1.965   1.900
    1GR    C147  147   1.064   2.088   1.900
    1GR    C148  148   1.205   2.088   1.900
    1GR    C149  149   0.851   2.210   1.900
    1GR    C150  150   0.993   2.210   1.900
    1GR    C151  151   1.064   2.333   1.900
    1GR    C152  152   1.205   2.333   1.900
    1GR    C153  153   0.851   2.456   1.900
    1GR    C154  154   0.993   2.456   1.900
    1GR    C155  155   1.064   2.579   1.900
    1GR    C156  156   1.205   2.579   1.900
    1GR    C157  157   0.851   2.702   1.900
    1GR    C158  158   0.993   2.702   1.900
    1GR    C159  159   1.064   2.824   1.900
    1GR    C160  160   1.205   2.824   1.900
    1GR    C161  161   0.851   2.947   1.900
    1GR    C162  162   0.993   2.947   1.900
    1GR    C163  163   1.064   3.070   1.900
    1GR    C164  164   1.205   3.070   1.900
    1GR    C165  165   0.851   3.193   1.900
    1GR    C166  166   0.993   3.193   1.900
    1GR    C167  167   1.064   3.316   1.900
    1GR    C168  168   1.205   3.316   1.900
    1GR    C169  169   1.276   0.000   1.900
    1GR    C170  170   1.418   0.000   1.900
    1GR    C171  171   1.489   0.123   1.900
    1GR    C172  172   1.631   0.123   1.900
    1GR    C173  173   1.276   0.246   1.900
    1GR    C174  174   1.418   0.246   1.900
    1GR    C175  175   1.489   0.368   1.900
    1GR    C176  176   1.631   0.368   1.900
    1GR    C177  177   1.276   0.491   1.900
    1GR    C178  178   1.418   0.491   1.900
    1GR    C179  179   1.489   0.614   1.900
    1GR    C180  180   1.631   0.614   1.900
    1GR    C181  181   1.276   0.737   1.900
    1GR    C182  182   1.418   0.737   1.900
    1GR    C183  183   1.489   0.860   1.900
    1GR    C184  184   1.631   0.860   1.900
    1GR    C185  185   1.276   0.982   1.900
    1GR    C186  186   1.418   0.982   1.900
    1GR    C187  187   1.489   1.105   1.900
    1GR    C188  188   1.631   1.105   1.900
    1GR    C189  189   1.276   1.228   1.900
    1GR    C190  190   1.418   1.228   1.900
    1GR    C191  191   1.489   1.351   1.900
    1GR    C192  192   1.631   1.351   1.900
    1GR    C193  193   1.276   1.474   1.900
    1GR    C194  194   1.418   1.474   1.900
    1GR    C195  195   1.489   1.596   1.900
    1GR    C196  196   1.631   1.596   1.900
    1GR    C197  197   1.276   1.719   1.900
    1GR    C198  198   1.418   1.719   1.900
    1GR    C199  199   1.489   1.842   1.900
    1GR    C200  200   1.631   1.842   1.900
    1GR    C201  201   1.276   1.965   1.900
    1GR    C202  202   1.418   1.965   1.900
    1GR    C203  203   1.489   2.088   1.900
    1GR    C204  204   1.631   2.088   1.900
    1GR    C205  205   1.276   2.210   1.900
    1GR    C206  206   1.418   2.210   1.900
    1GR    C207  207   1.489   2.333   1.900
    1GR    C208  208   1.631   2.333   1.900
    1GR    C209  209   1.276   2.456   1.900
    1GR    C210  210   1.418   2.456   1.900
    1GR    C211  211   1.489   2.579   1.900
    1GR    C212  212   1.631   2.579   1.900
    1GR    C213  213   1.276   2.702   1.900
    1GR    C214  214   1.418   2.702   1.900
    1GR    C215  215   1.489   2.824   1.900
    1GR    C216  216   1.631   2.824   1.900
    1GR    C217  217   1.276   2.947   1.900
    1GR    C218  218   1.418   2.947   1.900
    1GR    C219  219   1.489   3.070   1.900
    1GR    C220  220   1.631   3.070   1.900
    1GR    C221  221   1.276   3.193   1.900
    1GR    C222  222   1.418   3.193   1.900
    1GR    C223  223   1.489   3.316   1.900
    1GR    C224  224   1.631   3.316   1.900
    1GR    C225  225   1.702   0.000   1.900
    1GR    C226  226   1.843   0.000   1.900
    1GR    C227  227   1.914   0.123   1.900
    1GR    C228  228   2.056   0.123   1.900
    1GR    C229  229   1.702   0.246   1.900
    1GR    C230  230   1.843   0.246   1.900
    1GR    C231  231   1.914   0.368   1.900
    1GR    C232  232   2.056   0.368   1.900
    1GR    C233  233   1.702   0.491   1.900
    1GR    C234  234   1.843   0.491   1.900
    1GR    C235  235   1.914   0.614   1.900
    1GR    C236  236   2.056   0.614   1.900
    1GR    C237  237   1.702   0.737   1.900
    1GR    C238  238   1.843   0.737   1.900
    1GR    C239  239   1.914   0.860   1.900
    1GR    C240  240   2.056   0.860   1.900
    1GR    C241  241   1.702   0.982   1.900
    1GR    C242  242   1.843   0.982   1.900
    1GR    C243  243   1.914   1.105   1.900
    1GR    C244  244   2.056   1.105   1.900
    1GR    C245  245   1.702   1.228   1.900
    1GR    C246  246   1.843   1.228   1.900
    1GR    C247  247   1.914   1.351   1.900
    1GR    C248  248   2.056   1.351   1.900
    1GR    C249  249   1.702   1.474   1.900
    1GR    C250  250   1.843   1.474   1.900
    1GR    C251  251   1.914   1.596   1.900
    1GR    C252  252   2.056   1.596   1.900
    1GR    C253  253   1.702   1.719   1.900
    1GR    C254  254   1.843   1.719   1.900
    1GR    C255  255   1.914   1.842   1.900
    1GR    C256  256   2.056   1.842   1.900
    1GR    C257  257   1.702   1.965   1.900
    1GR    C258  258   1.843   1.965   1.900
    1GR    C259  259   1.914   2.088   1.900
    1GR    C260  260   2.056   2.088   1.900
    1GR    C261  261   1.702   2.210   1.900
    1GR    C262  262   1.843   2.210   1.900
    1GR    C263  263   1.914   2.333   1.900
    1GR    C264  264   2.056   2.333   1.900
    1GR    C265  265   1.702   2.456   1.900
    1GR    C266  266   1.843   2.456   1.900
    1GR    C267  267   1.914   2.579   1.900
    1GR    C268  268   2.056   2.579   1.900
    1GR    C269  269   1.702   2.702   1.900
    1GR    C270  270   1.843   2.702   1.900
    1GR    C271  271   1.914   2.824   1.900
    1GR    C272  272   2.056   2.824   1.900
    1GR    C273  273   1.702   2.947   1.900
    1GR    C274  274   1.843   2.947   1.900
    1GR    C275  275   1.914   3.070   1.900
    1GR    C276  276   2.056   3.070   1.900
    1GR    C277  277   1.702   3.193   1.900
    1GR    C278  278   1.843   3.193   1.900
    1GR    C279  279   1.914   3.316   1.900
    1GR    C280  280   2.056   3.316   1.900
    1GR    C281  281   2.127   0.000   1.900
    1GR    C282  282   2.269   0.000   1.900
    1GR    C283  283   2.340   0.123   1.900
    1GR    C284  284   2.481   0.123   1.900
    1GR    C285  285   2.127   0.246   1.900
    1GR    C286  286   2.269   0.246   1.900
    1GR    C287  287   2.340   0.368   1.900
    1GR    C288  288   2.481   0.368   1.900
    1GR    C289  289   2.127   0.491   1.900
    1GR    C290  290   2.269   0.491   1.900
    1GR    C291  291   2.340   0.614   1.900
    1GR    C292  292   2.481   0.614   1.900
    1GR    C293  293   2.127   0.737   1.900
    1GR    C294  294   2.269   0.737   1.900
    1GR    C295  295   2.340   0.860   1.900
    1GR    C296  296   2.481   0.860   1.900
    1GR    C297  297   2.127   0.982   1.900
    1GR    C298  298   2.269   0.982   1.900
    1GR    C299  299   2.340   1.105   1.900
    1GR    C300  300   2.481   1.105   1.900
    1GR    C301  301   2.127   1.228   1.900
    1GR    C302  302   2.269   1.228   1.900
    1GR    C303  303   2.340   1.351   1.900
    1GR    C304  304   2.481   1.351   1.900
    1GR    C305  305   2.127   1.474   1.900
    1GR    C306  306   2.269   1.474   1.900
    1GR    C307  307   2.340   1.596   1.900
    1GR    C308  308   2.481   1.596   1.900
    1GR    C309  309   2.127   1.719   1.900
    1GR    C310  310   2.269   1.719   1.900
    1GR    C311  311   2.340   1.842   1.900
    1GR    C312  312   2.481   1.842   1.900
    1GR    C313  313   2.127   1.965   1.900
    1GR    C314  314   2.269   1.965   1.900
    1GR    C315  315   2.340   2.088   1.900
    1GR    C316  316   2.481   2.088   1.900
    1GR    C317  317   2.127   2.210   1.900
    1GR    C318  318   2.269   2.210   1.900
    1GR    C319  319   2.340   2.333   1.900
    1GR    C320  320   2.481   2.333   1.900
    1GR    C321  321   2.127   2.456   1.900
    1GR    C322  322   2.269   2.456   1.900
    1GR    C323  323   2.340   2.579   1.900
    1GR    C324  324   2.481   2.579   1.900
    1GR    C325  325   2.127   2.702   1.900
    1GR    C326  326   2.269   2.702   1.900
    1GR    C327  327   2.340   2.824   1.900
    1GR    C328  328   2.481   2.824   1.900
    1GR    C329  329   2.127   2.947   1.900
    1GR    C330  330   2.269   2.947   1.900
    1GR    C331  331   2.340   3.070   1.900
    1GR    C332  332   2.481   3.070   1.900
    1GR    C333  333   2.127   3.193   1.900
    1GR    C334  334   2.269   3.193   1.900
    1GR    C335  335   2.340   3.316   1.900
    1GR    C336  336   2.481   3.316   1.900
    1GR    C337  337   2.552   0.000   1.900
    1GR    C338  338   2.694   0.000   1.900
    1GR    C339  339   2.765   0.123   1.900
    1GR    C340  340   2.907   0.123   1.900
    1GR    C341  341   2.552   0.246   1.900
    1GR    C342  342   2.694   0.246   1.900
    1GR    C343  343   2.765   0.368   1.900
    1GR    C344  344   2.907   0.368   1.900
    1GR    C345  345   2.552   0.491   1.900
    1GR    C346  346   2.694   0.491   1.900
    1GR    C347  347   2.765   0.614   1.900
    1GR    C348  348   2.907   0.614   1.900
    1GR    C349  349   2.552   0.737   1.900
    1GR    C350  350   2.694   0.737   1.900
    1GR    C351  351   2.765   0.860   1.900
    1GR    C352  352   2.907   0.860   1.900
    1GR    C353  353   2.552   0.982   1.900
    1GR    C354  354   2.694   0.982   1.900
    1GR    C355  355   2.765   1.105   1.900
    1GR    C356  356   2.907   1.105   1.900
    1GR    C357  357   2.552   1.228   1.900
    1GR    C358  358   2.694   1.228   1.900
    1GR    C359  359   2.765   1.351   1.900
    1GR    C360  360   2.907   1.351   1.900
    1GR    C361  361   2.552   1.474   1.900
    1GR    C362  362   2.694   1.474   1.900
    1GR    C363  363   2.765   1.596   1.900
    1GR    C364  364   2.907   1.596   1.900
    1GR    C365  365   2.552   1.719   1.900
    1GR    C366  366   2.694   1.719   1.900
    1GR    C367  367   2.765   1.842   1.900
    1GR    C368  368   2.907   1.842   1.900
    1GR    C369  369   2.552   1.965   1.900
    1GR    C370  370   2.694   1.965   1.900
    1GR    C371  371   2.765   2.088   1.900
    1GR    C372  372   2.907   2.088   1.900
    1GR    C373  373   2.552   2.210   1.900
    1GR    C374  374   2.694   2.210   1.900
    1GR    C375  375   2.765   2.333   1.900
    1GR    C376  376   2.907   2.333   1.900
    1GR    C377  377   2.552   2.456   1.900
    1GR    C378  378   2.694   2.456   1.900
    1GR    C379  379   2.765   2.579   1.900
    1GR    C380  380   2.907   2.579   1.900
    1GR    C381  381   2.552   2.702   1.900
    1GR    C382  382   2.694   2.702   1.900
    1GR    C383  383   2.765   2.824   1.900
    1GR    C384  384   2.907   2.824   1.900
    1GR    C385  385   2.552   2.947   1.900
    1GR    C386  386   2.694   2.947   1.900
    1GR    C387  387   2.765   3.070   1.900
    1GR    C388  388   2.907   3.070   1.900
    1GR    C389  389   2.552   3.193   1.900
    1GR    C390  390   2.694   3.193   1.900
    1GR    C391  391   2.765   3.316   1.900
    1GR    C392  392   2.907   3.316   1.900
    1GR    C393  393   2.978   0.000   1.900
    1GR    C394  394   3.120   0.000   1.900
    1GR    C395  395   3.191   0.123   1.900
    1GR    C396  396   3.332   0.123   1.900
    1GR    C397  397   2.978   0.246   1.900
    1GR    C398  398   3.120   0.246   1.900
    1GR    C399  399   3.191   0.368   1.900
    1GR    C400  400   3.332   0.368   1.900
    1GR    C401  401   2.978   0.491   1.900
    1GR    C402  402   3.120   0.491   1.900
    1GR    C403  403   3.191   0.614   1.900
    1GR    C404  404   3.332   0.614   1.900
    1GR    C405  405   2.978   0.737   1.900
    1GR    C406  406   3.120   0.737   1.900
    1GR    C407  407   3.191   0.860   1.900
    1GR    C408  408   3.332   0.860   1.900
    1GR    C409  409   2.978   0.982   1.900
    1GR    C410  410   3.120   0.982   1.900
    1GR    C411  411   3.191   1.105   1.900
    1GR    C412  412   3.332   1.105   1.900
    1GR    C413  413   2.978   1.228   1.900
    1GR    C414  414   3.120   1.228   1.900
    1GR    C415  415   3.191   1.351   1.900
    1GR    C416  416   3.332   1.351   1.900
    1GR    C417  417   2.978   1.474   1.900
    1GR    C418  418   3.120   1.474   1.900
    1GR    C419  419   3.191   1.596   1.900
    1GR    C420  420   3.332   1.596   1.900
    1GR    C421  421   2.978   1.719   1.900
    1GR    C422  422   3.120   1.719   1.900
    1GR    C423  423   3.191   1.842   1.900
    1GR    C424  424   3.332   1.842   1.900
    1GR    C425  425   2.978   1.965   1.900
    1GR    C426  426   3.120   1.965   1.900
    1GR    C427  427   3.191   2.088   1.900
    1GR    C428  428   3.332   2.088   1.900
    1GR    C429  429   2.978   2.210   1.900
    1GR    C430  430   3.120   2.210   1.900
    1GR    C431  431   3.191   2.333   1.900
    1GR    C432  432   3.332   2.333   1.900
    1GR    C433  433   2.978   2.456   1.900
    1GR    C434  434   3.120   2.456   1.900
    1GR    C435  435   3.191   2.579   1.900
    1GR    C436  436   3.332   2.579   1.900
    1GR    C437  437   2.978   2.702   1.900
    1GR    C438  438   3.120   2.702   1.900
    1GR    C439  439   3.191   2.824   1.900
    1GR    C440  440   3.332   2.824   1.900
    1GR    C441  441   2.978   2.947   1.900
    1GR    C442  442   3.120   2.947   1.900
    1GR    C443  443   3.191   3.070   1.900
    1GR    C444  444   3.332   3.070   1.900
    1GR    C445  445   2.978   3.193   1.900
    1GR    C446  446   3.120   3.193   1.900
    1GR    C447  447   3.191   3.316   1.900
    1GR    C448  448   3.332   3.316   1.900
    2PMMA   CX1  449   1.197   1.844   2.486
    2PMMA   CA2  450   1.351   1.833   2.485
    2PMMA   CX3  451   1.400   1.881   2.347
    2PMMA    C4  452   1.395   1.920   2.605
    2PMMA    O5  453   1.394   1.882   2.719
    2PMMA   OS6  454   1.446   2.041   2.571
    2PMMA   CE7  455   1.495   2.128   2.674
    2PMMA   CX8  456   1.389   1.682   2.509
    2PMMA   CA9  457   1.538   1.631   2.498
    2PMMA  CX10  458   1.577   1.619   2.348
    2PMMA   C11  459   1.533   1.490   2.560
    2PMMA   O12  460   1.564   1.389   2.503
    2PMMA  OS13  461   1.526   1.496   2.696
    2PMMA  CE14  462   1.533   1.381   2.778
    2PMMA  CX15  463   1.638   1.724   2.575
    2PMMA  CA16  464   1.793   1.699   2.584
    2PMMA  CX17  465   1.842   1.787   2.702
    2PMMA   C18  466   1.820   1.552   2.621
    2PMMA   O19  467   1.832   1.511   2.735
    2PMMA  OS20  468   1.842   1.470   2.516
    2PMMA  CE21  469   1.860   1.331   2.536
    2PMMA  CX22  470   1.861   1.743   2.449
    2PMMA  CA23  471   2.014   1.772   2.439
    2PMMA  CX24  472   2.097   1.654   2.496
    2PMMA   C25  473   2.047   1.910   2.499
    2PMMA   O26  474   1.972   2.003   2.497
    2PMMA  OS27  475   2.158   1.908   2.577
    2PMMA  CE28  476   2.176   2.010   2.674
    2PMMA  CX29  477   2.053   1.785   2.290
    2PMMA  HC30  478   1.153   1.806   2.578
    2PMMA  HC31  479   1.163   1.947   2.474
    2PMMA  HC32  480   1.152   1.786   2.404
    2PMMA  HC33  481   1.505   1.910   2.348
    2PMMA  HC34  482   1.344   1.967   2.309
    2PMMA  HC35  483   1.388   1.804   2.270
    2PMMA  H136  484   1.417   2.149   2.747
    2PMMA  H137  485   1.527   2.223   2.630
    2PMMA  H138  486   1.580   2.082   2.724
    2PMMA  HC39  487   1.349   1.656   2.608
    2PMMA  HC40  488   1.328   1.621   2.442
    2PMMA  HC41  489   1.494   1.582   2.286
    2PMMA  HC42  490   1.609   1.714   2.305
    2PMMA  HC43  491   1.660   1.549   2.332
    2PMMA  H144  492   1.433   1.339   2.790
    2PMMA  H145  493   1.570   1.409   2.877
    2PMMA  H146  494   1.600   1.306   2.737
    2PMMA  HC47  495   1.625   1.825   2.537
    2PMMA  HC48  496   1.600   1.731   2.678
    2PMMA  HC49  497   1.823   1.894   2.686
    2PMMA  HC50  498   1.949   1.775   2.722
    2PMMA  HC51  499   1.792   1.762   2.796
    2PMMA  H152  500   1.777   1.290   2.593
    2PMMA  H153  501   1.952   1.313   2.592
    2PMMA  H154  502   1.866   1.281   2.440
    2PMMA  HC55  503   1.838   1.668   2.372
    2PMMA  HC56  504   1.809   1.831   2.411
    2PMMA  HC57  505   2.205   1.668   2.484
    2PMMA  HC58  506   2.079   1.638   2.603
    2PMMA  HC59  507   2.072   1.560   2.445
    2PMMA  H160  508   2.173   2.109   2.628
    2PMMA  H161  509   2.273   1.998   2.723
    2PMMA  H162  510   2.099   2.000   2.751
    2PMMA  HC63  511   2.033   1.693   2.234
    2PMMA  HC64  512   1.997   1.865   2.240
    2PMMA  HC65  513   2.159   1.808   2.276
    3DMF     C1  514   1.704   0.995   1.107
    3DMF     N1  515   1.780   0.869   1.101
    3DMF     C2  516   1.924   0.877   1.079
    3DMF     C3  517   1.717   0.745   1.108
    3DMF     O1  518   1.598   0.732   1.130
    3DMF     H1  519   1.749   1.063   1.180
    3DMF     H2  520   1.600   0.976   1.134
    3DMF     H3  521   1.709   1.040   1.007
    3DMF     H4  522   1.943   0.936   0.988
    3DMF     H5  523   1.967   0.777   1.066
    3DMF     H6  524   1.970   0.925   1.166
    3DMF     H7  525   1.789   0.662   1.098
    4DMF     C1  526   1.728   0.685   0.547
    4DMF     N1  527   1.844   0.750   0.609
    4DMF     C2  528   1.929   0.831   0.522
    4DMF     C3  529   1.868   0.745   0.748
    4DMF     O1  530   1.794   0.687   0.825
    4DMF     H1  531   1.665   0.759   0.497
    4DMF     H2  532   1.668   0.633   0.623
    4DMF     H3  533   1.762   0.611   0.473
    4DMF     H4  534   1.986   0.767   0.454
    4DMF     H5  535   1.998   0.892   0.582
    4DMF     H6  536   1.865   0.900   0.464
    4DMF     H7  537   1.956   0.803   0.780
    5DMF     C1  538   2.687   1.510   0.468
    5DMF     N1  539   2.667   1.366   0.489
    5DMF     C2  540   2.579   1.325   0.598
    5DMF     C3  541   2.703   1.274   0.390
    5DMF     O1  542   2.773   1.306   0.295
    5DMF     H1  543   2.591   1.555   0.436
    5DMF     H2  544   2.762   1.530   0.390
    5DMF     H3  545   2.720   1.558   0.561
    5DMF     H4  546   2.637   1.294   0.686
    5DMF     H5  547   2.517   1.241   0.563
    5DMF     H6  548   2.512   1.407   0.628
    5DMF     H7  549   2.666   1.172   0.408
    6DMF     C1  550   0.420   0.982   0.563
    6DMF     N1  551   0.279   1.025   0.575
    6DMF     C2  552   0.174   0.923   0.569
    6DMF     C3  553   0.243   1.161   0.577
    6DMF     O1  554   0.322   1.250   0.605
    6DMF     H1  555   0.448   0.920   0.648
    6DMF     H2  556   0.487   1.068   0.557
    6DMF     H3  557   0.431   0.924   0.471
    6DMF     H4  558   0.154   0.896   0.465
    6DMF     H5  559   0.083   0.962   0.616
    6DMF     H6  560   0.205   0.834   0.626
    6DMF     H7  561   0.135   1.177   0.560
    7DMF     C1  562   0.321   2.897   0.150
    7DMF     N1  563   0.326   2.969   0.279
    7DMF     C2  564   0.214   2.951   0.372
    7DMF     C3  565   0.430   3.059   0.309
    7DMF     O1  566   0.528   3.075   0.238
    7DMF     H1  567   0.303   2.790   0.168
    7DMF     H2  568   0.416   2.908   0.095
    7DMF     H3  569   0.240   2.938   0.089
    7DMF     H4  570   0.122   2.993   0.329
    7DMF     H5  571   0.234   3.001   0.468
    7DMF     H6  572   0.198   2.844   0.392
    7DMF     H7  573   0.415   3.112   0.404
    8DMF     C1  574   0.539   1.298   0.345
    8DMF     N1  575   0.501   1.235   0.217
    8DMF     C2  576   0.604   1.233   0.112
    8DMF     C3  577   0.376   1.175   0.198
    8DMF     O1  578   0.288   1.173   0.282
    8DMF     H1  579   0.617   1.240   0.394
    8DMF     H2  580   0.453   1.306   0.412
    8DMF     H3  581   0.576   1.399   0.325
    8DMF     H4  582   0.623   1.335   0.077
    8DMF     H5  583   0.572   1.171   0.027
    8DMF     H6  584   0.697   1.191   0.153
    8DMF     H7  585   0.365   1.127   0.099
    9DMF     C1  586   3.281   2.693   0.920
    9DMF     N1  587   3.277   2.546   0.916
    9DMF     C2  588   3.219   2.477   1.032
    9DMF     C3  589   3.337   2.473   0.811
    9DMF     O1  590   3.401   2.527   0.722
    9DMF     H1  591   3.179   2.733   0.933
    9DMF     H2  592   3.323   2.734   0.827
    9DMF     H3  593   3.344   2.726   1.003
    9DMF     H4  594   3.276   2.500   1.122
    9DMF     H5  595   3.220   2.368   1.016
    9DMF     H6  596   3.115   2.510   1.046
    9DMF     H7  597   3.322   2.364   0.819
   10DMF     C1  598   0.756   2.236   0.282
   10DMF     N1  599   0.763   2.089   0.275
   10DMF     C2  600   0.758   2.026   0.142
   10DMF     C3  601   0.768   2.010   0.392
   10DMF     O1  602   0.785   2.061   0.502
   10DMF     H1  603   0.825   2.281   0.209
   10DMF     H2  604   0.784   2.272   0.382
   10DMF     H3  605   0.654   2.269   0.260
   10DMF     H4  606   0.667   2.058   0.089
   10DMF     H5  607   0.757   1.916   0.152
   10DMF     H6  608   0.846   2.056   0.084
   10DMF     H7  609   0.761   1.902   0.373
   11DMF     C1  610   2.968   1.184   1.053
   11DMF     N1  611   3.078   1.132   0.971
   11DMF     C2  612   3.192   1.221   0.943
   11DMF     C3  613   3.079   0.999   0.926
   11DMF     O1  614   2.990   0.920   0.952
   11DMF     H1  615   3.005   1.205   1.154
   11DMF     H2  616   2.885   1.113   1.060
   11DMF     H3  617   2.930   1.277   1.008
   11DMF     H4  618   3.161   1.300   0.872
   11DMF     H5  619   3.275   1.165   0.898
   11DMF     H6  620   3.226   1.268   1.036
   11DMF     H7  621   3.169   0.973   0.866
   12DMF     C1  622   1.764   1.610   1.552
   12DMF     N1  623   1.803   1.470   1.570
   12DMF     C2  624   1.946   1.442   1.580
   12DMF     C3  625   1.708   1.371   1.596
   12DMF     O1  626   1.589   1.395   1.600
   12DMF     H1  627   1.800   1.668   1.638
   12DMF     H2  628   1.655   1.621   1.545
   12DMF     H3  629   1.810   1.649   1.460
   12DMF     H4  630   1.999   1.496   1.501
   12DMF     H5  631   1.966   1.334   1.574
   12DMF     H6  632   1.985   1.481   1.675
   12DMF     H7  633   1.751   1.270   1.613
   13DMF     C1  634   2.112   3.285   0.389
   13DMF     N1  635   2.103   3.308   0.245
   13DMF     C2  636   1.977   3.268   0.180
   13DMF     C3  637   2.206   3.373   0.175
   13DMF     O1  638   2.308   3.412   0.228
   13DMF     H1  639   2.015   3.309   0.436
   13DMF     H2  640   2.190   3.347   0.436
   13DMF     H3  641   2.132   3.179   0.406
   13DMF     H4  642   1.953   3.165   0.207
   13DMF     H5  643   1.986   3.276   0.071
   13DMF     H6  644   1.896   3.334   0.215
   13DMF     H7  645   2.185   3.384   0.067
   14DMF     C1  646   0.530   1.064   1.418
   14DMF     N1  647   0.490   0.955   1.508
   14DMF     C2  648   0.348   0.921   1.519
   14DMF     C3  649   0.586   0.892   1.589
   14DMF     O1  650   0.699   0.935   1.600
   14DMF     H1  651   0.477   1.053   1.322
   14DMF     H2  652   0.638   1.058   1.397
   14DMF     H3  653   0.507   1.161   1.463
   14DMF     H4  654   0.290   1.013   1.531
   14DMF     H5  655   0.330   0.857   1.606
   14DMF     H6  656   0.314   0.869   1.429
   14DMF     H7  657   0.547   0.804   1.643
   15DMF     C1  658   2.960   3.089   0.446
   15DMF     N1  659   2.927   3.131   0.308
   15DMF     C2  660   2.937   3.273   0.274
   15DMF     C3  661   2.886   3.038   0.210
   15DMF     O1  662   2.871   2.921   0.236
   15DMF     H1  663   3.064   3.117   0.468
   15DMF     H2  664   2.950   2.980   0.458
   15DMF     H3  665   2.894   3.138   0.518
   15DMF     H4  666   2.868   3.330   0.336
   15DMF     H5  667   2.912   3.289   0.168
   15DMF     H6  668   3.040   3.307   0.292
   15DMF     H7  669   2.868   3.082   0.110
   16DMF     C1  670   2.890   1.788   0.359
   16DMF     N1  671   2.837   1.906   0.287
   16DMF     C2  672   2.793   2.021   0.367
   16DMF     C3  673   2.827   1.907   0.148
   16DMF     O1  674   2.853   1.812   0.076
   16DMF     H1  675   2.993   1.808   0.389
   16DMF     H2  676   2.887   1.699   0.296
   16DMF     H3  677   2.830   1.770   0.449
   16DMF     H4  678   2.726   1.989   0.448
   16DMF     H5  679   2.741   2.095   0.304
   16DMF     H6  680   2.880   2.068   0.413
   16DMF     H7  681   2.790   2.004   0.109
   17DMF     C1  682   0.336   0.613   0.635
   17DMF     N1  683   0.428   0.632   0.522
   17DMF     C2  684   0.572   0.623   0.550
   17DMF     C3  685   0.382   0.667   0.394
   17DMF     O1  686   0.265   0.688   0.367
   17DMF     H1  687   0.361   0.520   0.688
   17DMF     H2  688   0.232   0.609   0.601
   17DMF     H3  689   0.348   0.697   0.704
   17DMF     H4  690   0.606   0.717   0.596
   17DMF     H5  691   0.627   0.606   0.457
   17DMF     H6  692   0.591   0.540   0.619
   17DMF     H7  693   0.463   0.677   0.320
   18DMF     C1  694   3.066   3.314   1.289
   18DMF     N1  695   3.155   3.231   1.206
   18DMF     C2  696   3.235   3.129   1.274
   18DMF     C3  697   3.166   3.249   1.067
   18DMF     O1  698   3.105   3.335   1.006
   18DMF     H1  699   2.995   3.251   1.343
   18DMF     H2  700   3.010   3.384   1.226
   18DMF     H3  701   3.126   3.372   1.361
   18DMF     H4  702   3.294   3.175   1.354
   18DMF     H5  703   3.304   3.081   1.203
   18DMF     H6  704   3.169   3.052   1.317
   18DMF     H7  705   3.235   3.177   1.019
   19DMF     C1  706   2.325   2.307   1.562
   19DMF     N1  707   2.292   2.448   1.582
   19DMF     C2  708   2.398   2.550   1.582
   19DMF     C3  709   2.162   2.482   1.613
   19DMF     O1  710   2.071   2.401   1.618
   19DMF     H1  711   2.342   2.287   1.455
   19DMF     H2  712   2.240   2.246   1.594
   19DMF     H3  713   2.411   2.279   1.625
   19DMF     H4  714   2.490   2.511   1.628
   19DMF     H5  715   2.365   2.637   1.641
   19DMF     H6  716   2.417   2.585   1.480
   19DMF     H7  717   2.153   2.589   1.637
   20DMF     C1  718   0.210   2.159   1.332
   20DMF     N1  719   0.274   2.082   1.440
   20DMF     C2  720   0.393   2.139   1.505
   20DMF     C3  721   0.219   1.961   1.486
   20DMF     O1  722   0.110   1.919   1.451
   20DMF     H1  723   0.148   2.239   1.374
   20DMF     H2  724   0.146   2.093   1.271
   20DMF     H3  725   0.286   2.203   1.266
   20DMF     H4  726   0.461   2.180   1.430
   20DMF     H5  727   0.446   2.061   1.563
   20DMF     H6  728   0.362   2.219   1.573
   20DMF     H7  729   0.283   1.910   1.561
   21DMF     C1  730   2.325   1.079   1.362
   21DMF     N1  731   2.242   0.988   1.443
   21DMF     C2  732   2.240   1.006   1.588
   21DMF     C3  733   2.176   0.879   1.385
   21DMF     O1  734   2.187   0.851   1.268
   21DMF     H1  735   2.294   1.183   1.379
   21DMF     H2  736   2.315   1.057   1.255
   21DMF     H3  737   2.431   1.067   1.390
   21DMF     H4  738   2.343   1.005   1.625
   21DMF     H5  739   2.185   0.924   1.635
   21DMF     H6  740   2.191   1.101   1.613
   21DMF     H7  741   2.115   0.820   1.457
   22DMF     C1  742   2.600   0.699   0.673
   22DMF     N1  743   2.705   0.788   0.616
   22DMF     C2  744   2.839   0.781   0.674
   22DMF     C3  745   2.682   0.866   0.501
   22DMF     O1  746   2.570   0.889   0.457
   22DMF     H1  747   2.639   0.597   0.682
   22DMF     H2  748   2.512   0.697   0.608
   22DMF     H3  749   2.570   0.734   0.773
   22DMF     H4  750   2.832   0.793   0.783
   22DMF     H5  751   2.903   0.860   0.634
   22DMF     H6  752   2.883   0.683   0.652
   22DMF     H7  753   2.774   0.909   0.459
   23DMF     C1  754   0.965   1.376   0.879
   23DMF     N1  755   1.061   1.486   0.884
   23DMF     C2  756   1.009   1.618   0.919
   23DMF     C3  757   1.183   1.474   0.817
   23DMF     O1  758   1.204   1.385   0.738
   23DMF     H1  759   0.923   1.362   0.979
   23DMF     H2  760   1.013   1.282   0.849
   23DMF     H3  761   0.885   1.400   0.808
   23DMF     H4  762   0.929   1.643   0.849
   23DMF     H5  763   1.088   1.694   0.910
   23DMF     H6  764   0.968   1.616   1.021
   23DMF     H7  765   1.253   1.557   0.837
   24DMF     C1  766   2.647   2.839   0.438
   24DMF     N1  767   2.562   2.808   0.320
   24DMF     C2  768   2.627   2.771   0.193
   24DMF     C3  769   2.424   2.825   0.324
   24DMF     O1  770   2.361   2.840   0.426
   24DMF     H1  771   2.725   2.762   0.450
   24DMF     H2  772   2.588   2.845   0.530
   24DMF     H3  773   2.696   2.936   0.423
   24DMF     H4  774   2.649   2.862   0.135
   24DMF     H5  775   2.560   2.707   0.135
   24DMF     H6  776   2.720   2.716   0.213
   24DMF     H7  777   2.377   2.819   0.224
   25DMF     C1  778   2.083   0.399   0.197
   25DMF     N1  779   2.211   0.473   0.213
   25DMF     C2  780   2.335   0.396   0.227
   25DMF     C3  781   2.218   0.613   0.199
   25DMF     O1  782   2.122   0.680   0.164
   25DMF     H1  783   2.069   0.369   0.093
   25DMF     H2  784   1.999   0.462   0.228
   25DMF     H3  785   2.085   0.309   0.259
   25DMF     H4  786   2.356   0.371   0.332
   25DMF     H5  787   2.417   0.456   0.188
   25DMF     H6  788   2.328   0.302   0.171
   25DMF     H7  789   2.318   0.654   0.221
   26DMF     C1  790   2.884   0.340   1.094
   26DMF     N1  791   2.880   0.261   1.219
   26DMF     C2  792   2.920   0.328   1.343
   26DMF     C3  793   2.835   0.129   1.221
   26DMF     O1  794   2.789   0.070   1.125
   26DMF     H1  795   2.836   0.437   1.109
   26DMF     H2  796   2.833   0.288   1.012
   26DMF     H3  797   2.989   0.355   1.066
   26DMF     H4  798   3.029   0.345   1.342
   26DMF     H5  799   2.895   0.267   1.430
   26DMF     H6  800   2.869   0.425   1.352
   26DMF     H7  801   2.842   0.083   1.321
   27DMF     C1  802   2.931   1.486   0.811
   27DMF     N1  803   2.941   1.409   0.687
   27DMF     C2  804   2.912   1.264   0.691
   27DMF     C3  805   2.978   1.471   0.566
   27DMF     O1  806   3.009   1.589   0.561
   27DMF     H1  807   2.831   1.472   0.855
   27DMF     H2  808   2.946   1.593   0.792
   27DMF     H3  809   3.008   1.452   0.882
   27DMF     H4  810   3.001   1.210   0.725
   27DMF     H5  811   2.884   1.228   0.592
   27DMF     H6  812   2.830   1.245   0.762
   27DMF     H7  813   2.977   1.404   0.478
   28DMF     C1  814   1.292   1.203   0.516
   28DMF     N1  815   1.234   1.075   0.555
   28DMF     C2  816   1.106   1.078   0.627
   28DMF     C3  817   1.309   0.958   0.548
   28DMF     O1  818   1.406   0.945   0.476
   28DMF     H1  819   1.212   1.275   0.491
   28DMF     H2  820   1.360   1.191   0.431
   28DMF     H3  821   1.350   1.244   0.600
   28DMF     H4  822   1.112   1.149   0.710
   28DMF     H5  823   1.080   0.979   0.667
   28DMF     H6  824   1.026   1.111   0.559
   28DMF     H7  825   1.265   0.874   0.606
   29DMF     C1  826   2.271   1.990   1.597
   29DMF     N1  827   2.172   2.016   1.494
   29DMF     C2  828   2.040   2.056   1.539
   29DMF     C3  829   2.218   2.045   1.365
   29DMF     O1  830   2.311   1.983   1.316
   29DMF     H1  831   2.251   2.064   1.676
   29DMF     H2  832   2.373   2.009   1.561
   29DMF     H3  833   2.259   1.890   1.639
   29DMF     H4  834   2.007   1.992   1.622
   29DMF     H5  835   1.969   2.044   1.456
   29DMF     H6  836   2.040   2.161   1.572
   29DMF     H7  837   2.160   2.122   1.311
   30DMF     C1  838   2.906   2.999   1.003
   30DMF     N1  839   2.871   3.069   1.127
   30DMF     C2  840   2.807   3.201   1.117
   30DMF     C3  841   2.894   3.009   1.250
   30DMF     O1  842   2.957   2.905   1.263
   30DMF     H1  843   2.819   3.001   0.935
   30DMF     H2  844   2.932   2.895   1.022
   30DMF     H3  845   2.991   3.050   0.954
   30DMF     H4  846   2.880   3.274   1.078
   30DMF     H5  847   2.771   3.235   1.215
   30DMF     H6  848   2.724   3.199   1.046
   30DMF     H7  849   2.850   3.066   1.334
   31DMF     C1  850   2.760   0.145   0.128
   31DMF     N1  851   2.688   0.219   0.233
   31DMF     C2  852   2.642   0.146   0.352
   31DMF     C3  853   2.645   0.350   0.210
   31DMF     O1  854   2.664   0.411   0.105
   31DMF     H1  855   2.834   0.079   0.174
   31DMF     H2  856   2.812   0.215   0.061
   31DMF     H3  857   2.688   0.086   0.070
   31DMF     H4  858   2.560   0.078   0.324
   31DMF     H5  859   2.605   0.216   0.428
   31DMF     H6  860   2.724   0.088   0.395
   31DMF     H7  861   2.589   0.390   0.296
   32DMF     C1  862   1.648   1.144   0.526
   32DMF     N1  863   1.691   1.062   0.641
   32DMF     C2  864   1.591   0.982   0.711
   32DMF     C3  865   1.823   1.066   0.687
   32DMF     O1  866   1.913   1.119   0.624
   32DMF     H1  867   1.609   1.079   0.446
   32DMF     H2  868   1.732   1.201   0.486
   32DMF     H3  869   1.570   1.214   0.557
   32DMF     H4  870   1.494   1.034   0.712
   32DMF     H5  871   1.622   0.963   0.814
   32DMF     H6  872   1.578   0.886   0.659
   32DMF     H7  873   1.837   1.014   0.783
   33DMF     C1  874   1.333   0.973   1.136
   33DMF     N1  875   1.204   1.042   1.155
   33DMF     C2  876   1.160   1.072   1.291
   33DMF     C3  877   1.131   1.091   1.046
   33DMF     O1  878   1.167   1.075   0.931
   33DMF     H1  879   1.408   1.023   1.198
   33DMF     H2  880   1.366   0.978   1.031
   33DMF     H3  881   1.328   0.868   1.167
   33DMF     H4  882   1.166   0.981   1.352
   33DMF     H5  883   1.057   1.107   1.292
   33DMF     H6  884   1.225   1.150   1.333
   33DMF     H7  885   1.038   1.142   1.075
   34DMF     C1  886   1.082   1.223   0.245
   34DMF     N1  887   1.221   1.263   0.215
   34DMF     C2  888   1.316   1.157   0.173
   34DMF     C3  889   1.266   1.394   0.239
   34DMF     O1  890   1.192   1.483   0.276
   34DMF     H1  891   1.031   1.197   0.151
   34DMF     H2  892   1.028   1.304   0.295
   34DMF     H3  893   1.083   1.136   0.311
   34DMF     H4  894   1.299   1.067   0.233
   34DMF     H5  895   1.419   1.189   0.189
   34DMF     H6  896   1.301   1.134   0.067
   34DMF     H7  897   1.375   1.408   0.221
   35DMF     C1  898   0.170   2.170   0.945
   35DMF     N1  899   0.241   2.040   0.947
   35DMF     C2  900   0.387   2.040   0.931
   35DMF     C3  901   0.174   1.922   0.983
   35DMF     O1  902   0.052   1.915   0.988
   35DMF     H1  903   0.205   2.231   1.030
   35DMF     H2  904   0.062   2.156   0.955
   35DMF     H3  905   0.192   2.223   0.852
   35DMF     H4  906   0.416   2.105   0.848
   35DMF     H5  907   0.425   1.939   0.913
   35DMF     H6  908   0.433   2.078   1.023
   35DMF     H7  909   0.241   1.836   0.998
   36DMF     C1  910   0.291   2.546   1.174
   36DMF     N1  911   0.437   2.533   1.156
   36DMF     C2  912   0.522   2.643   1.199
   36DMF     C3  913   0.493   2.423   1.090
   36DMF     O1  914   0.426   2.328   1.054
   36DMF     H1  915   0.269   2.588   1.273
   36DMF     H2  916   0.241   2.449   1.164
   36DMF     H3  917   0.252   2.614   1.097
   36DMF     H4  918   0.489   2.738   1.155
   36DMF     H5  919   0.625   2.626   1.166
   36DMF     H6  920   0.518   2.651   1.308
   36DMF     H7  921   0.602   2.430   1.076
   37DMF     C1  922   1.556   3.104   0.975
   37DMF     N1  923   1.525   3.202   0.870
   37DMF     C2  924   1.606   3.201   0.747
   37DMF     C3  925   1.432   3.304   0.892
   37DMF     O1  926   1.375   3.319   0.999
   37DMF     H1  927   1.535   3.003   0.938
   37DMF     H2  928   1.494   3.122   1.063
   37DMF     H3  929   1.661   3.112   1.004
   37DMF     H4  930   1.693   3.267   0.759
   37DMF     H5  931   1.547   3.236   0.661
   37DMF     H6  932   1.643   3.100   0.726
   37DMF     H7  933   1.416   3.369   0.803
   38DMF     C1  934   1.932   1.693   0.228
   38DMF     N1  935   1.878   1.830   0.214
   38DMF     C2  936   1.973   1.942   0.212
   38DMF     C3  937   1.742   1.852   0.185
   38DMF     O1  938   1.659   1.763   0.179
   38DMF     H1  939   2.003   1.673   0.146
   38DMF     H2  940   1.852   1.618   0.223
   38DMF     H3  941   1.985   1.682   0.323
   38DMF     H4  942   2.059   1.920   0.276
   38DMF     H5  943   1.925   2.033   0.251
   38DMF     H6  944   2.008   1.959   0.110
   38DMF     H7  945   1.719   1.959   0.169
   39DMF     C1  946   1.789   0.755   1.416
   39DMF     N1  947   1.672   0.729   1.499
   39DMF     C2  948   1.578   0.622   1.459
   39DMF     C3  949   1.635   0.823   1.594
   39DMF     O1  950   1.699   0.926   1.610
   39DMF     H1  951   1.813   0.669   1.352
   39DMF     H2  952   1.875   0.778   1.480
   39DMF     H3  953   1.768   0.843   1.354
   39DMF     H4  954   1.533   0.647   1.362
   39DMF     H5  955   1.497   0.611   1.533
   39DMF     H6  956   1.630   0.526   1.451
   39DMF     H7  957   1.542   0.798   1.648
   40DMF     C1  958   1.029   1.861   1.154
   40DMF     N1  959   1.170   1.901   1.147
   40DMF     C2  960   1.273   1.798   1.139
   40DMF     C3  961   1.205   2.035   1.159
   40DMF     O1  962   1.123   2.124   1.158
   40DMF     H1  963   0.990   1.844   1.052
   40DMF     H2  964   0.970   1.941   1.201
   40DMF     H3  965   1.018   1.770   1.213
   40DMF     H4  966   1.252   1.722   1.216
   40DMF     H5  967   1.372   1.841   1.160
   40DMF     H6  968   1.271   1.752   1.040
   40DMF     H7  969   1.315   2.052   1.165
   41DMF     C1  970   1.581   2.377   0.163
   41DMF     N1  971   1.728   2.373   0.145
   41DMF     C2  972   1.794   2.243   0.156
   41DMF     C3  973   1.802   2.489   0.120
   41DMF     O1  974   1.753   2.598   0.096
   41DMF     H1  975   1.536   2.283   0.130
   41DMF     H2  976   1.538   2.461   0.106
   41DMF     H3  977   1.558   2.393   0.269
   41DMF     H4  978   1.738   2.177   0.223
   41DMF     H5  979   1.897   2.256   0.194
   41DMF     H6  980   1.801   2.194   0.059
   41DMF     H7  981   1.911   2.471   0.120
   42DMF     C1  982   0.457   0.158   0.175
   42DMF     N1  983   0.581   0.235   0.197
   42DMF     C2  984   0.708   0.161   0.203
   42DMF     C3  985   0.579   0.374   0.209
   42DMF     O1  986   0.476   0.440   0.211
   42DMF     H1  987   0.463   0.105   0.080
   42DMF     H2  988   0.369   0.223   0.173
   42DMF     H3  989   0.444   0.085   0.256
   42DMF     H4  990   0.703   0.086   0.283
   42DMF     H5  991   0.791   0.230   0.225
   42DMF     H6  992   0.727   0.111   0.108
   42DMF     H7  993   0.680   0.419   0.218
   43DMF     C1  994   2.539   0.845   1.265
   43DMF     N1  995   2.681   0.866   1.300
   43DMF     C2  996   2.727   1.002   1.333
   43DMF     C3  997   2.769   0.757   1.310
   43DMF     O1  998   2.732   0.642   1.295
   43DMF     H1  999   2.478   0.839   1.355
   43DMF     H2 1000   2.526   0.753   1.207
   43DMF     H3 1001   2.503   0.928   1.203
   43DMF     H4 1002   2.693   1.073   1.257
   43DMF     H5 1003   2.836   1.006   1.338
   43DMF     H6 1004   2.686   1.032   1.430
   43DMF     H7 1005   2.873   0.786   1.333
   44DMF     C1 1006   1.191   1.699   1.470
   44DMF     N1 1007   1.261   1.810   1.533
   44DMF     C2 1008   1.391   1.779   1.591
   44DMF     C3 1009   1.217   1.944   1.523
   44DMF     O1 1010   1.122   1.978   1.456
   44DMF     H1 1011   1.262   1.643   1.408
   44DMF     H2 1012   1.109   1.734   1.405
   44DMF     H3 1013   1.152   1.632   1.547
   44DMF     H4 1014   1.382   1.688   1.652
   44DMF     H5 1015   1.427   1.863   1.651
   44DMF     H6 1016   1.462   1.759   1.511
   44DMF     H7 1017   1.278   2.015   1.582
   45DMF     C1 1018   0.176   2.532   0.355
   45DMF     N1 1019   0.310   2.494   0.307
   45DMF     C2 1020   0.426   2.564   0.365
   45DMF     C3 1021   0.329   2.399   0.205
   45DMF     O1 1022   0.237   2.346   0.146
   45DMF     H1 1023   0.170   2.523   0.464
   45DMF     H2 1024   0.099   2.468   0.310
   45DMF     H3 1025   0.155   2.637   0.327
   45DMF     H4 1026   0.411   2.672   0.356
   45DMF     H5 1027   0.517   2.536   0.312
   45DMF     H6 1028   0.435   2.538   0.471
   45DMF     H7 1029   0.435   2.378   0.185
   46DMF     C1 1030   0.484   3.076   1.260
   46DMF     N1 1031   0.348   3.037   1.302
   46DMF     C2 1032   0.318   2.893   1.318
   46DMF     C3 1033   0.252   3.133   1.339
   46DMF     O1 1034   0.268   3.252   1.319
   46DMF     H1 1035   0.558   3.036   1.330
   46DMF     H2 1036   0.494   3.185   1.258
   46DMF     H3 1037   0.506   3.036   1.160
   46DMF     H4 1038   0.319   2.845   1.220
   46DMF     H5 1039   0.219   2.879   1.363
   46DMF     H6 1040   0.393   2.847   1.383
   46DMF     H7 1041   0.161   3.090   1.383
   47DMF     C1 1042   0.678   3.195   1.560
   47DMF     N1 1043   0.665   3.048   1.573
   47DMF     C2 1044   0.788   2.968   1.570
   47DMF     C3 1045   0.540   2.987   1.591
   47DMF     O1 1046   0.435   3.049   1.595
   47DMF     H1 1047   0.747   3.232   1.637
   47DMF     H2 1048   0.582   3.245   1.572
   47DMF     H3 1049   0.719   3.219   1.461
   47DMF     H4 1050   0.825   2.963   1.467
   47DMF     H5 1051   0.769   2.867   1.607
   47DMF     H6 1052   0.865   3.014   1.633
   47DMF     H7 1053   0.546   2.877   1.602
   48DMF     C1 1054   1.464   2.694   0.242
   48DMF     N1 1055   1.422   2.703   0.383
   48DMF     C2 1056   1.300   2.779   0.414
   48DMF     C3 1057   1.491   2.637   0.485
   48DMF     O1 1058   1.587   2.566   0.463
   48DMF     H1 1059   1.394   2.631   0.186
   48DMF     H2 1060   1.565   2.650   0.236
   48DMF     H3 1061   1.467   2.794   0.197
   48DMF     H4 1062   1.306   2.878   0.368
   48DMF     H5 1063   1.290   2.791   0.523
   48DMF     H6 1064   1.213   2.725   0.376
   48DMF     H7 1065   1.449   2.654   0.586
   49DMF     C1 1066   2.554   0.493   1.573
   49DMF     N1 1067   2.503   0.631   1.570
   49DMF     C2 1068   2.360   0.652   1.547
   49DMF     C3 1069   2.591   0.740   1.582
   49DMF     O1 1070   2.711   0.728   1.598
   49DMF     H1 1071   2.477   0.426   1.614
   49DMF     H2 1072   2.644   0.486   1.636
   49DMF     H3 1073   2.580   0.462   1.471
   49DMF     H4 1074   2.334   0.626   1.443
   49DMF     H5 1075   2.334   0.757   1.565
   49DMF     H6 1076   2.300   0.590   1.615
   49DMF     H7 1077   2.540   0.838   1.577
   50DMF     C1 1078   2.111   1.729   1.111
   50DMF     N1 1079   2.089   1.841   1.020
   50DMF     C2 1080   2.197   1.940   1.005
   50DMF     C3 1081   1.974   1.849   0.944
   50DMF     O1 1082   1.879   1.775   0.961
   50DMF     H1 1083   2.191   1.667   1.068
   50DMF     H2 1084   2.021   1.666   1.120
   50DMF     H3 1085   2.140   1.766   1.209
   50DMF     H4 1086   2.221   1.984   1.102
   50DMF     H5 1087   2.166   2.021   0.937
   50DMF     H6 1088   2.287   1.891   0.964
   50DMF     H7 1089   1.978   1.932   0.871
   51DMF     C1 1090   1.188   3.072   1.031
   51DMF     N1 1091   1.137   2.943   1.082
   51DMF     C2 1092   0.996   2.936   1.123
   51DMF     C3 1093   1.218   2.828   1.085
   51DMF     O1 1094   1.334   2.825   1.049
   51DMF     H1 1095   1.117   3.114   0.959
   51DMF     H2 1096   1.285   3.059   0.982
   51DMF     H3 1097   1.199   3.142   1.115
   51DMF     H4 1098   0.979   3.005   1.206
   51DMF     H5 1099   0.970   2.834   1.155
   51DMF     H6 1100   0.932   2.965   1.038
   51DMF     H7 1101   1.165   2.737   1.120
   52DMF     C1 1102   3.052   2.664   0.672
   52DMF     N1 1103   3.053   2.812   0.683
   52DMF     C2 1104   2.926   2.876   0.715
   52DMF     C3 1105   3.166   2.889   0.650
   52DMF     O1 1106   3.273   2.844   0.613
   52DMF     H1 1107   3.038   2.622   0.772
   52DMF     H2 1108   3.145   2.626   0.628
   52DMF     H3 1109   2.968   2.633   0.608
   52DMF     H4 1110   2.855   2.862   0.632
   52DMF     H5 1111   2.940   2.984   0.731
   52DMF     H6 1112   2.885   2.830   0.805
   52DMF     H7 1113   3.148   2.997   0.661
   53DMF     C1 1114   2.498   1.264   1.587
   53DMF     N1 1115   2.417   1.387   1.586
   53DMF     C2 1116   2.271   1.380   1.582
   53DMF     C3 1117   2.481   1.510   1.603
   53DMF     O1 1118   2.601   1.521   1.590
   53DMF     H1 1119   2.444   1.185   1.641
   53DMF     H2 1120   2.593   1.282   1.638
   53DMF     H3 1121   2.520   1.231   1.485
   53DMF     H4 1122   2.238   1.361   1.479
   53DMF     H5 1123   2.226   1.474   1.617
   53DMF     H6 1124   2.235   1.299   1.647
   53DMF     H7 1125   2.412   1.592   1.630
   54DMF     C1 1126   1.245   3.319   0.209
   54DMF     N1 1127   1.289   3.178   0.214
   54DMF     C2 1128   1.431   3.151   0.240
   54DMF     C3 1129   1.200   3.073   0.189
   54DMF     O1 1130   1.080   3.088   0.173
   54DMF     H1 1131   1.276   3.371   0.300
   54DMF     H2 1132   1.136   3.326   0.201
   54DMF     H3 1133   1.290   3.368   0.123
   54DMF     H4 1134   1.493   3.207   0.168
   54DMF     H5 1135   1.453   3.044   0.230
   54DMF     H6 1136   1.457   3.184   0.342
   54DMF     H7 1137   1.250   2.974   0.186
   55DMF     C1 1138   0.128   2.089   0.326
   55DMF     N1 1139   0.141   2.097   0.473
   55DMF     C2 1140   0.171   2.229   0.531
   55DMF     C3 1141   0.118   1.986   0.556
   55DMF     O1 1142   0.107   1.873   0.513
   55DMF     H1 1143   0.038   2.143   0.294
   55DMF     H2 1144   0.120   1.984   0.293
   55DMF     H3 1145   0.215   2.134   0.278
   55DMF     H4 1146   0.274   2.256   0.509
   55DMF     H5 1147   0.155   2.228   0.640
   55DMF     H6 1148   0.106   2.305   0.487
   55DMF     H7 1149   0.116   2.012   0.664
   56DMF     C1 1150   1.077   0.336   0.774
   56DMF     N1 1151   1.111   0.454   0.692
   56DMF     C2 1152   1.224   0.442   0.598
   56DMF     C3 1153   1.038   0.573   0.700
   56DMF     O1 1154   0.934   0.582   0.763
   56DMF     H1 1155   1.066   0.247   0.710
   56DMF     H2 1156   0.983   0.352   0.829
   56DMF     H3 1157   1.157   0.317   0.847
   56DMF     H4 1158   1.319   0.451   0.653
   56DMF     H5 1159   1.219   0.521   0.522
   56DMF     H6 1160   1.219   0.345   0.548
   56DMF     H7 1161   1.081   0.655   0.640
   57DMF     C1 1162   1.290   1.059   1.590
   57DMF     N1 1163   1.397   1.028   1.493
   57DMF     C2 1164   1.500   1.130   1.473
   57DMF     C3 1165   1.406   0.903   1.431
   57DMF     O1 1166   1.332   0.810   1.458
   57DMF     H1 1167   1.337   1.109   1.675
   57DMF     H2 1168   1.239   0.968   1.623
   57DMF     H3 1169   1.217   1.128   1.546
   57DMF     H4 1170   1.452   1.226   1.452
   57DMF     H5 1171   1.567   1.102   1.391
   57DMF     H6 1172   1.558   1.139   1.566
   57DMF     H7 1173   1.489   0.896   1.358
   58DMF     C1 1174   1.066   0.745   1.184
   58DMF     N1 1175   0.950   0.833   1.164
   58DMF     C2 1176   0.904   0.853   1.026
   58DMF     C3 1177   0.890   0.903   1.270
   58DMF     O1 1178   0.929   0.895   1.384
   58DMF     H1 1179   1.045   0.646   1.143
   58DMF     H2 1180   1.091   0.736   1.291
   58DMF     H3 1181   1.151   0.784   1.128
   58DMF     H4 1182   0.978   0.910   0.968
   58DMF     H5 1183   0.808   0.907   1.025
   58DMF     H6 1184   0.891   0.756   0.975
   58DMF     H7 1185   0.807   0.969   1.238
   59DMF     C1 1186   0.633   2.139   1.185
   59DMF     N1 1187   0.687   2.010   1.227
   59DMF     C2 1188   0.712   1.991   1.370
   59DMF     C3 1189   0.720   1.911   1.134
   59DMF     O1 1190   0.708   1.924   1.013
   59DMF     H1 1191   0.528   2.147   1.216
   59DMF     H2 1192   0.641   2.152   1.076
   59DMF     H3 1193   0.691   2.218   1.235
   59DMF     H4 1194   0.780   2.069   1.407
   59DMF     H5 1195   0.756   1.893   1.388
   59DMF     H6 1196   0.617   1.998   1.425
   59DMF     H7 1197   0.760   1.819   1.181
   60DMF     C1 1198   2.444   1.331   0.176
   60DMF     N1 1199   2.375   1.459   0.152
   60DMF     C2 1200   2.458   1.580   0.146
   60DMF     C3 1201   2.237   1.469   0.173
   60DMF     O1 1202   2.170   1.379   0.219
   60DMF     H1 1203   2.526   1.319   0.105
   60DMF     H2 1204   2.374   1.247   0.163
   60DMF     H3 1205   2.483   1.330   0.278
   60DMF     H4 1206   2.520   1.585   0.236
   60DMF     H5 1207   2.394   1.669   0.143
   60DMF     H6 1208   2.522   1.577   0.057
   60DMF     H7 1209   2.196   1.569   0.149
   61DMF     C1 1210   2.298   1.816   0.404
   61DMF     N1 1211   2.382   1.902   0.321
   61DMF     C2 1212   2.319   2.011   0.244
   61DMF     C3 1213   2.519   1.876   0.311
   61DMF     O1 1214   2.573   1.796   0.384
   61DMF     H1 1215   2.264   1.873   0.492
   61DMF     H2 1216   2.354   1.728   0.440
   61DMF     H3 1217   2.214   1.779   0.345
   61DMF     H4 1218   2.252   1.969   0.169
   61DMF     H5 1219   2.395   2.072   0.195
   61DMF     H6 1220   2.262   2.074   0.313
   61DMF     H7 1221   2.570   1.937   0.234
   62DMF     C1 1222   2.662   2.701   0.783
   62DMF     N1 1223   2.529   2.637   0.786
   62DMF     C2 1224   2.438   2.667   0.676
   62DMF     C3 1225   2.486   2.567   0.899
   62DMF     O1 1226   2.549   2.563   1.003
   62DMF     H1 1227   2.712   2.680   0.688
   62DMF     H2 1228   2.725   2.664   0.865
   62DMF     H3 1229   2.650   2.809   0.793
   62DMF     H4 1230   2.420   2.775   0.674
   62DMF     H5 1231   2.342   2.616   0.689
   62DMF     H6 1232   2.483   2.636   0.581
   62DMF     H7 1233   2.387   2.519   0.885
   63DMF     C1 1234   1.706   3.298   1.221
   63DMF     N1 1235   1.836   3.291   1.150
   63DMF     C2 1236   1.949   3.227   1.218
   63DMF     C3 1237   1.852   3.345   1.021
   63DMF     O1 1238   1.764   3.405   0.964
   63DMF     H1 1239   1.676   3.197   1.251
   63DMF     H2 1240   1.628   3.340   1.156
   63DMF     H3 1241   1.716   3.361   1.310
   63DMF     H4 1242   1.959   3.267   1.320
   63DMF     H5 1243   2.043   3.246   1.163
   63DMF     H6 1244   1.933   3.119   1.223
   63DMF     H7 1245   1.953   3.328   0.979
   64DMF     C1 1246   2.988   0.357   0.773
   64DMF     N1 1247   3.048   0.492   0.770
   64DMF     C2 1248   3.009   0.587   0.876
   64DMF     C3 1249   3.153   0.521   0.682
   64DMF     O1 1250   3.188   0.441   0.597
   64DMF     H1 1251   3.038   0.297   0.849
   64DMF     H2 1252   2.999   0.307   0.676
   64DMF     H3 1253   2.881   0.365   0.796
   64DMF     H4 1254   2.900   0.591   0.884
   64DMF     H5 1255   3.048   0.687   0.854
   64DMF     H6 1256   3.049   0.553   0.972
   64DMF     H7 1257   3.197   0.621   0.695
   65DMF     C1 1258   1.576   2.624   0.897
   65DMF     N1 1259   1.650   2.533   0.807
   65DMF     C2 1260   1.578   2.419   0.749
   65DMF     C3 1261   1.787   2.555   0.781
   65DMF     O1 1262   1.849   2.645   0.833
   65DMF     H1 1263   1.506   2.685   0.839
   65DMF     H2 1264   1.645   2.691   0.950
   65DMF     H3 1265   1.521   2.566   0.972
   65DMF     H4 1266   1.525   2.364   0.828
   65DMF     H5 1267   1.650   2.351   0.701
   65DMF     H6 1268   1.506   2.453   0.675
   65DMF     H7 1269   1.829   2.482   0.709
   66DMF     C1 1270   1.374   1.803   0.397
   66DMF     N1 1271   1.402   1.674   0.461
   66DMF     C2 1272   1.522   1.603   0.417
   66DMF     C3 1273   1.324   1.622   0.565
   66DMF     O1 1274   1.239   1.688   0.623
   66DMF     H1 1275   1.461   1.870   0.407
   66DMF     H2 1276   1.287   1.851   0.443
   66DMF     H3 1277   1.354   1.786   0.290
   66DMF     H4 1278   1.512   1.575   0.312
   66DMF     H5 1279   1.535   1.513   0.479
   66DMF     H6 1280   1.610   1.667   0.429
   66DMF     H7 1281   1.351   1.518   0.592
   67DMF     C1 1282   1.989   2.201   0.719
   67DMF     N1 1283   2.099   2.258   0.639
   67DMF     C2 1284   2.171   2.169   0.549
   67DMF     C3 1285   2.127   2.395   0.642
   67DMF     O1 1286   2.072   2.470   0.719
   67DMF     H1 1287   1.915   2.154   0.653
   67DMF     H2 1288   1.938   2.279   0.777
   67DMF     H3 1289   2.028   2.125   0.787
   67DMF     H4 1290   2.216   2.087   0.606
   67DMF     H5 1291   2.251   2.225   0.497
   67DMF     H6 1292   2.102   2.128   0.474
   67DMF     H7 1293   2.207   2.426   0.572
   68DMF     C1 1294   0.991   0.878   0.184
   68DMF     N1 1295   1.048   0.770   0.266
   68DMF     C2 1296   1.134   0.813   0.373
   68DMF     C3 1297   1.036   0.633   0.237
   68DMF     O1 1298   0.968   0.587   0.148
   68DMF     H1 1299   0.951   0.957   0.250
   68DMF     H2 1300   0.909   0.841   0.122
   68DMF     H3 1301   1.069   0.922   0.122
   68DMF     H4 1302   1.207   0.883   0.331
   68DMF     H5 1303   1.188   0.729   0.419
   68DMF     H6 1304   1.074   0.864   0.449
   68DMF     H7 1305   1.094   0.570   0.307
   69DMF     C1 1306   1.252   2.425   0.356
   69DMF     N1 1307   1.151   2.364   0.444
   69DMF     C2 1308   1.199   2.272   0.544
   69DMF     C3 1309   1.016   2.399   0.442
   69DMF     O1 1310   0.973   2.486   0.371
   69DMF     H1 1311   1.339   2.452   0.418
   69DMF     H2 1312   1.214   2.516   0.309
   69DMF     H3 1313   1.285   2.353   0.280
   69DMF     H4 1314   1.249   2.189   0.492
   69DMF     H5 1315   1.114   2.234   0.602
   69DMF     H6 1316   1.269   2.324   0.610
   69DMF     H7 1317   0.954   2.342   0.514
   70DMF     C1 1318   1.092   2.620   0.636
   70DMF     N1 1319   1.170   2.673   0.747
   70DMF     C2 1320   1.255   2.580   0.821
   70DMF     C3 1321   1.171   2.811   0.773
   70DMF     O1 1322   1.083   2.885   0.734
   70DMF     H1 1323   1.164   2.589   0.558
   70DMF     H2 1324   1.025   2.696   0.592
   70DMF     H3 1325   1.034   2.533   0.668
   70DMF     H4 1326   1.196   2.495   0.856
   70DMF     H5 1327   1.300   2.628   0.908
   70DMF     H6 1328   1.335   2.543   0.754
   70DMF     H7 1329   1.259   2.845   0.831
   71DMF     C1 1330   1.602   0.891   0.197
   71DMF     N1 1331   1.748   0.877   0.212
   71DMF     C2 1332   1.830   0.999   0.220
   71DMF     C3 1333   1.810   0.751   0.223
   71DMF     O1 1334   1.750   0.645   0.210
   71DMF     H1 1335   1.565   0.966   0.267
   71DMF     H2 1336   1.551   0.796   0.217
   71DMF     H3 1337   1.579   0.923   0.094
   71DMF     H4 1338   1.824   1.051   0.123
   71DMF     H5 1339   1.935   0.976   0.241
   71DMF     H6 1340   1.791   1.065   0.299
   71DMF     H7 1341   1.918   0.758   0.244
   72DMF     C1 1342   3.212   2.072   0.686
   72DMF     N1 1343   3.157   1.935   0.687
   72DMF     C2 1344   3.249   1.824   0.711
   72DMF     C3 1345   3.021   1.908   0.664
   72DMF     O1 1346   2.940   1.993   0.632
   72DMF     H1 1347   3.273   2.088   0.776
   72DMF     H2 1348   3.132   2.147   0.685
   72DMF     H3 1349   3.275   2.087   0.597
   72DMF     H4 1350   3.298   1.796   0.617
   72DMF     H5 1351   3.194   1.736   0.749
   72DMF     H6 1352   3.325   1.853   0.785
   72DMF     H7 1353   2.995   1.802   0.678
   73DMF     C1 1354   0.550   2.277   0.563
   73DMF     N1 1355   0.664   2.334   0.633
   73DMF     C2 1356   0.706   2.268   0.757
   73DMF     C3 1357   0.726   2.450   0.586
   73DMF     O1 1358   0.700   2.497   0.477
   73DMF     H1 1359   0.577   2.175   0.534
   73DMF     H2 1360   0.524   2.334   0.473
   73DMF     H3 1361   0.464   2.275   0.631
   73DMF     H4 1362   0.629   2.278   0.834
   73DMF     H5 1363   0.800   2.312   0.793
   73DMF     H6 1364   0.723   2.161   0.738
   73DMF     H7 1365   0.804   2.490   0.654
   74DMF     C1 1366   2.046   2.975   1.007
   74DMF     N1 1367   1.902   2.948   0.997
   74DMF     C2 1368   1.841   2.971   0.867
   74DMF     C3 1369   1.840   2.864   1.089
   74DMF     O1 1370   1.895   2.832   1.193
   74DMF     H1 1371   2.095   2.916   0.929
   74DMF     H2 1372   2.086   2.943   1.104
   74DMF     H3 1373   2.066   3.082   0.992
   74DMF     H4 1374   1.839   3.079   0.847
   74DMF     H5 1375   1.739   2.931   0.864
   74DMF     H6 1376   1.901   2.920   0.791
   74DMF     H7 1377   1.738   2.833   1.060
   75DMF     C1 1378   2.613   2.855   1.111
   75DMF     N1 1379   2.557   2.992   1.107
   75DMF     C2 1380   2.511   3.049   1.234
   75DMF     C3 1381   2.535   3.060   0.985
   75DMF     O1 1382   2.586   3.025   0.880
   75DMF     H1 1383   2.715   2.855   1.150
   75DMF     H2 1384   2.612   2.812   1.011
   75DMF     H3 1385   2.552   2.792   1.176
   75DMF     H4 1386   2.440   2.979   1.279
   75DMF     H5 1387   2.463   3.146   1.219
   75DMF     H6 1388   2.597   3.061   1.302
   75DMF     H7 1389   2.472   3.150   0.995
   76DMF     C1 1390   2.105   1.397   1.067
   76DMF     N1 1391   2.060   1.298   1.165
   76DMF     C2 1392   2.031   1.345   1.300
   76DMF     C3 1393   2.075   1.162   1.138
   76DMF     O1 1394   2.085   1.121   1.025
   76DMF     H1 1395   2.022   1.462   1.037
   76DMF     H2 1396   2.146   1.348   0.978
   76DMF     H3 1397   2.184   1.457   1.113
   76DMF     H4 1398   2.099   1.428   1.323
   76DMF     H5 1399   2.045   1.265   1.373
   76DMF     H6 1400   1.928   1.381   1.304
   76DMF     H7 1401   2.071   1.099   1.229
   77DMF     C1 1402   2.243   1.253   0.605
   77DMF     N1 1403   2.180   1.383   0.584
   77DMF     C2 1404   2.060   1.412   0.661
   77DMF     C3 1405   2.231   1.477   0.496
   77DMF     O1 1406   2.347   1.476   0.458
   77DMF     H1 1407   2.302   1.256   0.697
   77DMF     H2 1408   2.308   1.228   0.520
   77DMF     H3 1409   2.166   1.175   0.613
   77DMF     H4 1410   2.003   1.320   0.681
   77DMF     H5 1411   1.997   1.478   0.600
   77DMF     H6 1412   2.086   1.459   0.756
   77DMF     H7 1413   2.160   1.558   0.472
   78DMF     C1 1414   1.423   0.186   0.671
   78DMF     N1 1415   1.531   0.252   0.745
   78DMF     C2 1416   1.571   0.192   0.873
   78DMF     C3 1417   1.607   0.353   0.684
   78DMF     O1 1418   1.575   0.406   0.579
   78DMF     H1 1419   1.450   0.080   0.662
   78DMF     H2 1420   1.413   0.227   0.569
   78DMF     H3 1421   1.328   0.196   0.725
   78DMF     H4 1422   1.498   0.218   0.950
   78DMF     H5 1423   1.671   0.224   0.903
   78DMF     H6 1424   1.573   0.082   0.862
   78DMF     H7 1425   1.698   0.378   0.741
   79DMF     C1 1426   2.616   3.239   0.458
   79DMF     N1 1427   2.492   3.174   0.415
   79DMF     C2 1428   2.482   3.134   0.273
   79DMF     C3 1429   2.386   3.154   0.504
   79DMF     O1 1430   2.380   3.205   0.614
   79DMF     H1 1431   2.696   3.164   0.455
   79DMF     H2 1432   2.607   3.278   0.560
   79DMF     H3 1433   2.641   3.320   0.389
   79DMF     H4 1434   2.492   3.223   0.209
   79DMF     H5 1435   2.385   3.087   0.253
   79DMF     H6 1436   2.562   3.064   0.249
   79DMF     H7 1437   2.306   3.090   0.461
   80DMF     C1 1438   2.599   1.370   0.981
   80DMF     N1 1439   2.602   1.363   1.128
   80DMF     C2 1440   2.722   1.408   1.196
   80DMF     C3 1441   2.494   1.321   1.205
   80DMF     O1 1442   2.386   1.289   1.162
   80DMF     H1 1443   2.629   1.471   0.948
   80DMF     H2 1444   2.498   1.349   0.942
   80DMF     H3 1445   2.669   1.297   0.939
   80DMF     H4 1446   2.798   1.330   1.185
   80DMF     H5 1447   2.703   1.424   1.303
   80DMF     H6 1448   2.757   1.503   1.152
   80DMF     H7 1449   2.517   1.323   1.313
   81DMF     C1 1450   0.544   0.151   0.990
   81DMF     N1 1451   0.557   0.297   0.999
   81DMF     C2 1452   0.557   0.374   0.874
   81DMF     C3 1453   0.550   0.364   1.123
   81DMF     O1 1454   0.556   0.306   1.231
   81DMF     H1 1455   0.467   0.127   0.916
   81DMF     H2 1456   0.514   0.108   1.087
   81DMF     H3 1457   0.640   0.107   0.959
   81DMF     H4 1458   0.658   0.371   0.831
   81DMF     H5 1459   0.530   0.478   0.892
   81DMF     H6 1460   0.485   0.332   0.803
   81DMF     H7 1461   0.541   0.473   1.113
   82DMF     C1 1462   0.404   1.658   1.445
   82DMF     N1 1463   0.480   1.685   1.321
   82DMF     C2 1464   0.612   1.624   1.303
   82DMF     C3 1465   0.421   1.755   1.215
   82DMF     O1 1466   0.313   1.809   1.225
   82DMF     H1 1467   0.433   1.562   1.488
   82DMF     H2 1468   0.296   1.656   1.425
   82DMF     H3 1469   0.423   1.738   1.519
   82DMF     H4 1470   0.690   1.693   1.338
   82DMF     H5 1471   0.630   1.603   1.197
   82DMF     H6 1472   0.619   1.531   1.360
   82DMF     H7 1473   0.483   1.758   1.123
   83DMF     C1 1474   2.531   0.221   1.185
   83DMF     N1 1475   2.470   0.344   1.239
   83DMF     C2 1476   2.370   0.328   1.345
   83DMF     C3 1477   2.502   0.470   1.186
   83DMF     O1 1478   2.573   0.485   1.088
   83DMF     H1 1479   2.580   0.168   1.267
   83DMF     H2 1480   2.605   0.245   1.108
   83DMF     H3 1481   2.453   0.157   1.142
   83DMF     H4 1482   2.305   0.243   1.322
   83DMF     H5 1483   2.308   0.418   1.353
   83DMF     H6 1484   2.419   0.308   1.441
   83DMF     H7 1485   2.452   0.553   1.238
   84DMF     C1 1486   2.873   1.761   0.987
   84DMF     N1 1487   2.874   1.817   1.123
   84DMF     C2 1488   2.745   1.842   1.187
   84DMF     C3 1489   2.990   1.879   1.174
   84DMF     O1 1490   3.099   1.869   1.121
   84DMF     H1 1491   2.828   1.661   0.990
   84DMF     H2 1492   2.975   1.755   0.946
   84DMF     H3 1493   2.814   1.826   0.921
   84DMF     H4 1494   2.693   1.923   1.135
   84DMF     H5 1495   2.759   1.870   1.292
   84DMF     H6 1496   2.684   1.751   1.182
   84DMF     H7 1497   2.974   1.933   1.269
   85DMF     C1 1498   1.910   2.025   1.191
   85DMF     N1 1499   1.812   2.118   1.245
   85DMF     C2 1500   1.671   2.088   1.218
   85DMF     C3 1501   1.851   2.235   1.310
   85DMF     O1 1502   1.967   2.257   1.336
   85DMF     H1 1503   1.912   1.932   1.248
   85DMF     H2 1504   2.010   2.069   1.189
   85DMF     H3 1505   1.879   2.006   1.088
   85DMF     H4 1506   1.651   2.081   1.111
   85DMF     H5 1507   1.606   2.165   1.261
   85DMF     H6 1508   1.649   1.992   1.265
   85DMF     H7 1509   1.768   2.303   1.337
   86DMF     C1 1510   0.133   0.344   0.676
   86DMF     N1 1511   0.179   0.333   0.536
   86DMF     C2 1512   0.280   0.231   0.505
   86DMF     C3 1513   0.127   0.417   0.435
   86DMF     O1 1514   0.042   0.501   0.457
   86DMF     H1 1515   0.073   0.257   0.703
   86DMF     H2 1516   0.074   0.435   0.692
   86DMF     H3 1517   0.222   0.348   0.741
   86DMF     H4 1518   0.365   0.243   0.573
   86DMF     H5 1519   0.314   0.241   0.402
   86DMF     H6 1520   0.237   0.131   0.519
   86DMF     H7 1521   0.173   0.400   0.336
   87DMF     C1 1522   0.437   1.794   0.418
   87DMF     N1 1523   0.445   1.937   0.447
   87DMF     C2 1524   0.431   1.976   0.588
   87DMF     C3 1525   0.444   2.031   0.343
   87DMF     O1 1526   0.456   2.000   0.225
   87DMF     H1 1527   0.506   1.740   0.483
   87DMF     H2 1528   0.462   1.774   0.313
   87DMF     H3 1529   0.334   1.760   0.438
   87DMF     H4 1530   0.359   1.909   0.637
   87DMF     H5 1531   0.390   2.077   0.597
   87DMF     H6 1532   0.527   1.969   0.639
   87DMF     H7 1533   0.434   2.135   0.378
   88DMF     C1 1534   3.040   2.262   1.226
   88DMF     N1 1535   3.035   2.235   1.371
   88DMF     C2 1536   3.146   2.281   1.455
   88DMF     C3 1537   2.930   2.161   1.426
   88DMF     O1 1538   2.848   2.105   1.356
   88DMF     H1 1539   3.048   2.370   1.210
   88DMF     H2 1540   2.948   2.227   1.176
   88DMF     H3 1541   3.126   2.211   1.182
   88DMF     H4 1542   3.241   2.245   1.412
   88DMF     H5 1543   3.136   2.242   1.557
   88DMF     H6 1544   3.148   2.390   1.458
   88DMF     H7 1545   2.931   2.158   1.537
   89DMF     C1 1546   1.893   1.312   0.140
   89DMF     N1 1547   1.825   1.350   0.264
   89DMF     C2 1548   1.908   1.375   0.382
   89DMF     C3 1549   1.686   1.360   0.273
   89DMF     O1 1550   1.611   1.344   0.178
   89DMF     H1 1551   1.933   1.401   0.090
   89DMF     H2 1552   1.822   1.261   0.074
   89DMF     H3 1553   1.975   1.242   0.162
   89DMF     H4 1554   1.959   1.283   0.412
   89DMF     H5 1555   1.845   1.412   0.464
   89DMF     H6 1556   1.982   1.453   0.359
   89DMF     H7 1557   1.651   1.382   0.375
   90DMF     C1 1558   1.507   2.934   1.251
   90DMF     N1 1559   1.490   2.817   1.337
   90DMF     C2 1560   1.402   2.832   1.453
   90DMF     C3 1561   1.554   2.696   1.313
   90DMF     O1 1562   1.615   2.669   1.211
   90DMF     H1 1563   1.409   2.979   1.230
   90DMF     H2 1564   1.556   2.906   1.157
   90DMF     H3 1565   1.569   3.009   1.302
   90DMF     H4 1566   1.417   2.929   1.501
   90DMF     H5 1567   1.419   2.752   1.526
   90DMF     H6 1568   1.298   2.828   1.419
   90DMF     H7 1569   1.541   2.625   1.396
   91DMF     C1 1570   3.095   2.723   0.100
   91DMF     N1 1571   3.158   2.828   0.182
   91DMF     C2 1572   3.213   2.945   0.113
   91DMF     C3 1573   3.140   2.831   0.321
   91DMF     O1 1574   3.074   2.749   0.382
   91DMF     H1 1575   3.012   2.766   0.042
   91DMF     H2 1576   3.055   2.642   0.163
   91DMF     H3 1577   3.169   2.680   0.031
   91DMF     H4 1578   3.298   2.915   0.051
   91DMF     H5 1579   3.246   3.021   0.185
   91DMF     H6 1580   3.135   2.989   0.050
   91DMF     H7 1581   3.191   2.917   0.370
   92DMF     C1 1582   0.326   2.467   0.764
   92DMF     N1 1583   0.394   2.594   0.737
   92DMF     C2 1584   0.312   2.703   0.681
   92DMF     C3 1585   0.523   2.620   0.786
   92DMF     O1 1586   0.590   2.537   0.845
   92DMF     H1 1587   0.243   2.483   0.834
   92DMF     H2 1588   0.395   2.393   0.807
   92DMF     H3 1589   0.286   2.427   0.669
   92DMF     H4 1590   0.286   2.681   0.577
   92DMF     H5 1591   0.368   2.798   0.684
   92DMF     H6 1592   0.220   2.714   0.739
   92DMF     H7 1593   0.556   2.724   0.767
   93DMF     C1 1594   0.843   1.248   1.423
   93DMF     N1 1595   0.855   1.334   1.304
   93DMF     C2 1596   0.987   1.384   1.267
   93DMF     C3 1597   0.747   1.347   1.216
   93DMF     O1 1598   0.640   1.295   1.239
   93DMF     H1 1599   0.860   1.143   1.395
   93DMF     H2 1600   0.742   1.256   1.465
   93DMF     H3 1601   0.915   1.278   1.500
   93DMF     H4 1602   1.044   1.411   1.356
   93DMF     H5 1603   0.978   1.472   1.202
   93DMF     H6 1604   1.041   1.306   1.212
   93DMF     H7 1605   0.769   1.409   1.127
   94DMF     C1 1606   2.519   1.729   0.932
   94DMF     N1 1607   2.463   1.664   0.812
   94DMF     C2 1608   2.516   1.701   0.680
   94DMF     C3 1609   2.374   1.557   0.824
   94DMF     O1 1610   2.322   1.530   0.929
   94DMF     H1 1611   2.628   1.723   0.927
   94DMF     H2 1612   2.486   1.678   1.023
   94DMF     H3 1613   2.488   1.834   0.937
   94DMF     H4 1614   2.470   1.795   0.646
   94DMF     H5 1615   2.490   1.624   0.607
   94DMF     H6 1616   2.625   1.713   0.685
   94DMF     H7 1617   2.352   1.505   0.729
   95DMF     C1 1618   3.305   2.802   1.278
   95DMF     N1 1619   3.297   2.753   1.417
   95DMF     C2 1620   3.216   2.830   1.513
   95DMF     C3 1621   3.335   2.621   1.447
   95DMF     O1 1622   3.397   2.551   1.369
   95DMF     H1 1623   3.207   2.841   1.247
   95DMF     H2 1624   3.332   2.721   1.210
   95DMF     H3 1625   3.380   2.881   1.271
   95DMF     H4 1626   3.268   2.923   1.540
   95DMF     H5 1627   3.197   2.772   1.604
   95DMF     H6 1628   3.119   2.855   1.468
   95DMF     H7 1629   3.304   2.588   1.548
   96DMF     C1 1630   1.829   0.402   1.240
   96DMF     N1 1631   1.742   0.415   1.122
   96DMF     C2 1632   1.596   0.406   1.140
   96DMF     C3 1633   1.797   0.437   0.994
   96DMF     O1 1634   1.916   0.434   0.970
   96DMF     H1 1635   1.777   0.439   1.329
   96DMF     H2 1636   1.919   0.463   1.226
   96DMF     H3 1637   1.857   0.297   1.255
   96DMF     H4 1638   1.570   0.304   1.172
   96DMF     H5 1639   1.544   0.428   1.047
   96DMF     H6 1640   1.564   0.477   1.217
   96DMF     H7 1641   1.719   0.458   0.919
   97DMF     C1 1642   2.244   1.694   1.447
   97DMF     N1 1643   2.377   1.686   1.384
   97DMF     C2 1644   2.393   1.597   1.270
   97DMF     C3 1645   2.489   1.756   1.434
   97DMF     O1 1646   2.489   1.806   1.545
   97DMF     H1 1647   2.190   1.781   1.407
   97DMF     H2 1648   2.253   1.705   1.556
   97DMF     H3 1649   2.186   1.604   1.425
   97DMF     H4 1650   2.340   1.504   1.291
   97DMF     H5 1651   2.500   1.576   1.254
   97DMF     H6 1652   2.353   1.643   1.179
   97DMF     H7 1653   2.578   1.750   1.369
   98DMF     C1 1654   3.204   0.566   1.191
   98DMF     N1 1655   3.252   0.681   1.111
   98DMF     C2 1656   3.231   0.816   1.166
   98DMF     C3 1657   3.321   0.663   0.990
   98DMF     O1 1658   3.345   0.554   0.943
   98DMF     H1 1659   3.260   0.560   1.285
   98DMF     H2 1660   3.216   0.472   1.136
   98DMF     H3 1661   3.097   0.580   1.214
   98DMF     H4 1662   3.124   0.832   1.186
   98DMF     H5 1663   3.266   0.892   1.095
   98DMF     H6 1664   3.287   0.826   1.260
   98DMF     H7 1665   3.351   0.758   0.942
   99DMF     C1 1666   2.784   2.528   1.381
   99DMF     N1 1667   2.876   2.580   1.281
   99DMF     C2 1668   2.836   2.572   1.139
   99DMF     C3 1669   3.005   2.618   1.318
   99DMF     O1 1670   3.045   2.604   1.433
   99DMF     H1 1671   2.684   2.569   1.363
   99DMF     H2 1672   2.815   2.554   1.483
   99DMF     H3 1673   2.785   2.419   1.370
   99DMF     H4 1674   2.815   2.467   1.113
   99DMF     H5 1675   2.915   2.611   1.073
   99DMF     H6 1676   2.745   2.631   1.125
   99DMF     H7 1677   3.066   2.656   1.235
  100DMF     C1 1678   2.879   0.631   0.218
  100DMF     N1 1679   2.888   0.545   0.338
  100DMF     C2 1680   3.006   0.457   0.350
  100DMF     C3 1681   2.782   0.531   0.428
  100DMF     O1 1682   2.672   0.579   0.407
  100DMF     H1 1683   2.966   0.698   0.215
  100DMF     H2 1684   2.788   0.692   0.220
  100DMF     H3 1685   2.879   0.569   0.128
  100DMF     H4 1686   3.010   0.390   0.264
  100DMF     H5 1687   2.999   0.397   0.441
  100DMF     H6 1688   3.098   0.518   0.354
  100DMF     H7 1689   2.806   0.470   0.517
  101DMF     C1 1690   1.301   2.279   1.379
  101DMF     N1 1691   1.397   2.347   1.288
  101DMF     C2 1692   1.354   2.380   1.151
  101DMF     C3 1693   1.524   2.383   1.331
  101DMF     O1 1694   1.563   2.366   1.445
  101DMF     H1 1695   1.203   2.328   1.378
  101DMF     H2 1696   1.336   2.280   1.483
  101DMF     H3 1697   1.288   2.174   1.349
  101DMF     H4 1698   1.281   2.306   1.116
  101DMF     H5 1699   1.440   2.381   1.083
  101DMF     H6 1700   1.306   2.479   1.150
  101DMF     H7 1701   1.586   2.427   1.250
  102DMF     C1 1702   0.782   2.702   1.372
  102DMF     N1 1703   0.730   2.584   1.446
  102DMF     C2 1704   0.672   2.603   1.579
  102DMF     C3 1705   0.729   2.457   1.387
  102DMF     O1 1706   0.756   2.441   1.270
  102DMF     H1 1707   0.702   2.776   1.358
  102DMF     H2 1708   0.823   2.674   1.275
  102DMF     H3 1709   0.863   2.750   1.430
  102DMF     H4 1710   0.746   2.651   1.644
  102DMF     H5 1711   0.643   2.507   1.622
  102DMF     H6 1712   0.583   2.666   1.570
  102DMF     H7 1713   0.696   2.376   1.455
  103DMF     C1 1714   2.976   3.078   1.581
  103DMF     N1 1715   2.830   3.054   1.578
  103DMF     C2 1716   2.739   3.169   1.567
  103DMF     C3 1717   2.779   2.922   1.581
  103DMF     O1 1718   2.851   2.825   1.592
  103DMF     H1 1719   3.017   3.071   1.480
  103DMF     H2 1720   3.025   3.002   1.643
  103DMF     H3 1721   2.997   3.177   1.623
  103DMF     H4 1722   2.774   3.250   1.633
  103DMF     H5 1723   2.637   3.141   1.596
  103DMF     H6 1724   2.738   3.206   1.464
  103DMF     H7 1725   2.669   2.917   1.575
  104DMF     C1 1726   1.286   0.566   0.946
  104DMF     N1 1727   1.352   0.680   0.881
  104DMF     C2 1728   1.492   0.663   0.842
  104DMF     C3 1729   1.282   0.795   0.845
  104DMF     O1 1730   1.161   0.796   0.836
  104DMF     H1 1731   1.303   0.475   0.887
  104DMF     H2 1732   1.178   0.583   0.956
  104DMF     H3 1733   1.329   0.551   1.046
  104DMF     H4 1734   1.544   0.597   0.912
  104DMF     H5 1735   1.544   0.760   0.840
  104DMF     H6 1736   1.495   0.618   0.742
  104DMF     H7 1737   1.347   0.880   0.817
  105DMF     C1 1738   0.911   1.815   1.585
  105DMF     N1 1739   0.825   1.696   1.579
  105DMF     C2 1740   0.883   1.571   1.529
  105DMF     C3 1741   0.687   1.708   1.599
  105DMF     O1 1742   0.633   1.815   1.612
  105DMF     H1 1743   1.005   1.791   1.637
  105DMF     H2 1744   0.862   1.898   1.636
  105DMF     H3 1745   0.934   1.845   1.482
  105DMF     H4 1746   0.926   1.591   1.430
  105DMF     H5 1747   0.805   1.495   1.520
  105DMF     H6 1748   0.962   1.535   1.597
  105DMF     H7 1749   0.635   1.611   1.597
  106DMF     C1 1750   1.146   1.924   0.164
  106DMF     N1 1751   1.105   2.050   0.228
  106DMF     C2 1752   1.108   2.174   0.148
  106DMF     C3 1753   1.061   2.051   0.360
  106DMF     O1 1754   1.065   1.954   0.433
  106DMF     H1 1755   1.083   1.906   0.076
  106DMF     H2 1756   1.134   1.839   0.232
  106DMF     H3 1757   1.252   1.931   0.135
  106DMF     H4 1758   1.213   2.202   0.130
  106DMF     H5 1759   1.059   2.255   0.203
  106DMF     H6 1760   1.057   2.159   0.052
  106DMF     H7 1761   1.020   2.149   0.392
  107DMF     C1 1762   1.732   1.512   1.152
  107DMF     N1 1763   1.643   1.625   1.124
  107DMF     C2 1764   1.664   1.748   1.198
  107DMF     C3 1765   1.548   1.621   1.021
  107DMF     O1 1766   1.520   1.521   0.961
  107DMF     H1 1767   1.829   1.531   1.105
  107DMF     H2 1768   1.690   1.419   1.113
  107DMF     H3 1769   1.746   1.502   1.260
  107DMF     H4 1770   1.640   1.731   1.304
  107DMF     H5 1771   1.598   1.826   1.159
  107DMF     H6 1772   1.769   1.779   1.188
  107DMF     H7 1773   1.497   1.718   1.004
  108DMF     C1 1774   2.162   2.636   0.946
  108DMF     N1 1775   2.246   2.698   1.049
  108DMF     C2 1776   2.226   2.656   1.187
  108DMF     C3 1777   2.316   2.815   1.026
  108DMF     O1 1778   2.330   2.863   0.915
  108DMF     H1 1779   2.178   2.528   0.946
  108DMF     H2 1780   2.188   2.674   0.846
  108DMF     H3 1781   2.057   2.658   0.966
  108DMF     H4 1782   2.131   2.702   1.218
  108DMF     H5 1783   2.306   2.694   1.252
  108DMF     H6 1784   2.221   2.547   1.195
  108DMF     H7 1785   2.350   2.862   1.120
  109DMF     C1 1786   1.275   1.467   1.170
  109DMF     N1 1787   1.394   1.413   1.237
  109DMF     C2 1788   1.454   1.485   1.349
  109DMF     C3 1789   1.459   1.302   1.183
  109DMF     O1 1790   1.415   1.242   1.088
  109DMF     H1 1791   1.211   1.517   1.243
  109DMF     H2 1792   1.218   1.386   1.121
  109DMF     H3 1793   1.305   1.538   1.092
  109DMF     H4 1794   1.457   1.593   1.327
  109DMF     H5 1795   1.556   1.450   1.364
  109DMF     H6 1796   1.395   1.467   1.440
  109DMF     H7 1797   1.552   1.275   1.235
  110DMF     C1 1798   0.605   2.827   0.479
  110DMF     N1 1799   0.691   2.912   0.564
  110DMF     C2 1800   0.681   3.057   0.544
  110DMF     C3 1801   0.783   2.857   0.655
  110DMF     O1 1802   0.791   2.738   0.678
  110DMF     H1 1803   0.500   2.850   0.496
  110DMF     H2 1804   0.621   2.720   0.502
  110DMF     H3 1805   0.629   2.844   0.373
  110DMF     H4 1806   0.705   3.082   0.440
  110DMF     H5 1807   0.752   3.110   0.611
  110DMF     H6 1808   0.580   3.090   0.568
  110DMF     H7 1809   0.844   2.934   0.706
  111DMF     C1 1810   1.763   2.797   0.589
  111DMF     N1 1811   1.673   2.879   0.509
  111DMF     C2 1812   1.707   2.902   0.368
  111DMF     C3 1813   1.551   2.925   0.560
  111DMF     O1 1814   1.506   2.891   0.669
  111DMF     H1 1815   1.782   2.700   0.540
  111DMF     H2 1816   1.719   2.780   0.688
  111DMF     H3 1817   1.859   2.848   0.603
  111DMF     H4 1818   1.780   2.984   0.360
  111DMF     H5 1819   1.617   2.929   0.311
  111DMF     H6 1820   1.749   2.811   0.325
  111DMF     H7 1821   1.498   2.990   0.489
  112DMF     C1 1822   1.534   0.340   0.160
  112DMF     N1 1823   1.415   0.417   0.199
  112DMF     C2 1824   1.314   0.346   0.279
  112DMF     C3 1825   1.387   0.544   0.145
  112DMF     O1 1826   1.451   0.597   0.056
  112DMF     H1 1827   1.590   0.311   0.249
  112DMF     H2 1828   1.599   0.400   0.094
  112DMF     H3 1829   1.503   0.250   0.106
  112DMF     H4 1830   1.267   0.267   0.218
  112DMF     H5 1831   1.236   0.414   0.314
  112DMF     H6 1832   1.362   0.299   0.366
  112DMF     H7 1833   1.298   0.591   0.191
  113DMF     C1 1834   0.153   1.530   1.183
  113DMF     N1 1835   0.237   1.442   1.267
  113DMF     C2 1836   0.182   1.391   1.394
  113DMF     C3 1837   0.367   1.408   1.227
  113DMF     O1 1838   0.413   1.440   1.119
  113DMF     H1 1839   0.075   1.469   1.136
  113DMF     H2 1840   0.212   1.578   1.103
  113DMF     H3 1841   0.108   1.608   1.245
  113DMF     H4 1842   0.134   1.473   1.450
  113DMF     H5 1843   0.262   1.349   1.456
  113DMF     H6 1844   0.109   1.313   1.374
  113DMF     H7 1845   0.420   1.348   1.303
  114DMF     C1 1846   2.566   2.137   1.290
  114DMF     N1 1847   2.566   2.268   1.355
  114DMF     C2 1848   2.516   2.381   1.275
  114DMF     C3 1849   2.613   2.285   1.486
  114DMF     O1 1850   2.640   2.193   1.561
  114DMF     H1 1851   2.476   2.126   1.230
  114DMF     H2 1852   2.572   2.056   1.364
  114DMF     H3 1853   2.652   2.131   1.222
  114DMF     H4 1854   2.592   2.411   1.202
  114DMF     H5 1855   2.493   2.468   1.338
  114DMF     H6 1856   2.424   2.353   1.222
  114DMF     H7 1857   2.617   2.391   1.517
  115DMF     C1 1858   1.995   2.593   1.397
  115DMF     N1 1859   1.921   2.636   1.514
  115DMF     C2 1860   1.805   2.554   1.556
  115DMF     C3 1861   1.967   2.743   1.590
  115DMF     O1 1862   2.067   2.808   1.567
  115DMF     H1 1863   1.993   2.484   1.388
  115DMF     H2 1864   2.100   2.625   1.407
  115DMF     H3 1865   1.949   2.639   1.309
  115DMF     H4 1866   1.736   2.546   1.471
  115DMF     H5 1867   1.754   2.600   1.641
  115DMF     H6 1868   1.838   2.453   1.584
  115DMF     H7 1869   1.900   2.762   1.676
  116DMF     C1 1870   2.432   0.304   0.631
  116DMF     N1 1871   2.437   0.210   0.744
  116DMF     C2 1872   2.312   0.143   0.784
  116DMF     C3 1873   2.559   0.181   0.808
  116DMF     O1 1874   2.664   0.231   0.772
  116DMF     H1 1875   2.389   0.253   0.543
  116DMF     H2 1876   2.532   0.341   0.604
  116DMF     H3 1877   2.370   0.390   0.657
  116DMF     H4 1878   2.231   0.217   0.794
  116DMF     H5 1879   2.325   0.092   0.880
  116DMF     H6 1880   2.283   0.069   0.708
  116DMF     H7 1881   2.550   0.110   0.892
  117DMF     C1 1882   0.755   1.046   0.743
  117DMF     N1 1883   0.701   1.176   0.788
  117DMF     C2 1884   0.660   1.271   0.684
  117DMF     C3 1885   0.711   1.219   0.920
  117DMF     O1 1886   0.774   1.157   1.004
  117DMF     H1 1887   0.676   0.989   0.693
  117DMF     H2 1888   0.791   0.987   0.828
  117DMF     H3 1889   0.838   1.062   0.674
  117DMF     H4 1890   0.732   1.269   0.602
  117DMF     H5 1891   0.656   1.372   0.725
  117DMF     H6 1892   0.560   1.244   0.645
  117DMF     H7 1893   0.660   1.315   0.939
  118DMF     C1 1894   2.177   0.595   1.093
  118DMF     N1 1895   2.230   0.470   1.036
  118DMF     C2 1896   2.318   0.482   0.919
  118DMF     C3 1897   2.187   0.344   1.079
  118DMF     O1 1898   2.121   0.326   1.180
  118DMF     H1 1899   2.260   0.661   1.120
  118DMF     H2 1900   2.115   0.576   1.182
  118DMF     H3 1901   2.116   0.644   1.017
  118DMF     H4 1902   2.258   0.471   0.828
  118DMF     H5 1903   2.395   0.404   0.922
  118DMF     H6 1904   2.367   0.580   0.919
  118DMF     H7 1905   2.224   0.262   1.016
  119DMF     C1 1906   1.276   3.235   1.389
  119DMF     N1 1907   1.148   3.172   1.427
  119DMF     C2 1908   1.144   3.026   1.436
  119DMF     C3 1909   1.035   3.247   1.462
  119DMF     O1 1910   1.030   3.368   1.457
  119DMF     H1 1911   1.346   3.229   1.473
  119DMF     H2 1912   1.261   3.341   1.362
  119DMF     H3 1913   1.320   3.183   1.303
  119DMF     H4 1914   1.191   2.984   1.346
  119DMF     H5 1915   1.042   2.988   1.442
  119DMF     H6 1916   1.199   2.994   1.526
  119DMF     H7 1917   0.950   3.183   1.493
  120DMF     C1 1918   2.340   2.239   0.835
  120DMF     N1 1919   2.440   2.133   0.854
  120DMF     C2 1920   2.453   2.028   0.753
  120DMF     C3 1921   2.535   2.144   0.957
  120DMF     O1 1922   2.549   2.248   1.017
  120DMF     H1 1923   2.358   2.291   0.741
  120DMF     H2 1924   2.341   2.311   0.917
  120DMF     H3 1925   2.240   2.193   0.835
  120DMF     H4 1926   2.364   1.963   0.755
  120DMF     H5 1927   2.542   1.968   0.773
  120DMF     H6 1928   2.463   2.072   0.654
  120DMF     H7 1929   2.597   2.054   0.972
  121DMF     C1 1930   1.656   2.865   1.603
  121DMF     N1 1931   1.697   2.985   1.530
  121DMF     C2 1932   1.811   2.970   1.441
  121DMF     C3 1933   1.630   3.107   1.543
  121DMF     O1 1934   1.529   3.120   1.608
  121DMF     H1 1935   1.652   2.778   1.536
  121DMF     H2 1936   1.559   2.879   1.652
  121DMF     H3 1937   1.732   2.844   1.678
  121DMF     H4 1938   1.902   3.001   1.494
  121DMF     H5 1939   1.795   3.030   1.351
  121DMF     H6 1940   1.819   2.865   1.412
  121DMF     H7 1941   1.678   3.188   1.485
  122DMF     C1 1942   1.055   2.598   1.595
  122DMF     N1 1943   1.177   2.580   1.518
  122DMF     C2 1944   1.293   2.520   1.584
  122DMF     C3 1945   1.183   2.626   1.387
  122DMF     O1 1946   1.102   2.706   1.343
  122DMF     H1 1947   1.038   2.509   1.657
  122DMF     H2 1948   0.969   2.607   1.528
  122DMF     H3 1949   1.065   2.690   1.655
  122DMF     H4 1950   1.330   2.588   1.662
  122DMF     H5 1951   1.375   2.505   1.513
  122DMF     H6 1952   1.265   2.424   1.629
  122DMF     H7 1953   1.273   2.591   1.333
  123DMF     C1 1954   2.778   2.197   0.781
  123DMF     N1 1955   2.907   2.241   0.836
  123DMF     C2 1956   2.952   2.375   0.802
  123DMF     C3 1957   2.985   2.153   0.911
  123DMF     O1 1958   2.945   2.042   0.940
  123DMF     H1 1959   2.702   2.270   0.812
  123DMF     H2 1960   2.751   2.098   0.817
  123DMF     H3 1961   2.785   2.194   0.672
  123DMF     H4 1962   2.953   2.387   0.693
  123DMF     H5 1963   3.053   2.393   0.840
  123DMF     H6 1964   2.883   2.449   0.845
  123DMF     H7 1965   3.083   2.193   0.940
  124DMF     C1 1966   0.143   1.198   1.069
  124DMF     N1 1967   0.209   1.079   1.013
  124DMF     C2 1968   0.300   1.102   0.900
  124DMF     C3 1969   0.184   0.950   1.061
  124DMF     O1 1970   0.112   0.929   1.157
  124DMF     H1 1971   0.213   1.282   1.065
  124DMF     H2 1972   0.112   1.180   1.173
  124DMF     H3 1973   0.056   1.223   1.008
  124DMF     H4 1974   0.244   1.158   0.824
  124DMF     H5 1975   0.334   1.007   0.857
  124DMF     H6 1976   0.386   1.161   0.931
  124DMF     H7 1977   0.235   0.871   1.004
  125DMF     C1 1978   0.727   1.753   0.659
  125DMF     N1 1979   0.793   1.653   0.572
  125DMF     C2 1980   0.936   1.670   0.541
  125DMF     C3 1981   0.723   1.546   0.516
  125DMF     O1 1982   0.603   1.530   0.531
  125DMF     H1 1983   0.785   1.769   0.750
  125DMF     H2 1984   0.626   1.721   0.686
  125DMF     H3 1985   0.720   1.849   0.605
  125DMF     H4 1986   0.946   1.739   0.456
  125DMF     H5 1987   0.982   1.574   0.514
  125DMF     H6 1988   0.988   1.711   0.628
  125DMF     H7 1989   0.786   1.479   0.456
  126DMF     C1 1990   0.238   0.359   1.262
  126DMF     N1 1991   0.217   0.465   1.162
  126DMF     C2 1992   0.177   0.598   1.210
  126DMF     C3 1993   0.223   0.438   1.024
  126DMF     O1 1994   0.251   0.327   0.980
  126DMF     H1 1995   0.304   0.395   1.341
  126DMF     H2 1996   0.284   0.271   1.216
  126DMF     H3 1997   0.141   0.330   1.304
  126DMF     H4 1998   0.073   0.596   1.244
  126DMF     H5 1999   0.187   0.672   1.129
  126DMF     H6 2000   0.241   0.628   1.294
  126DMF     H7 2001   0.202   0.526   0.960
  127DMF     C1 2002   0.989   0.385   1.580
  127DMF     N1 2003   0.845   0.417   1.577
  127DMF     C2 2004   0.748   0.307   1.562
  127DMF     C3 2005   0.800   0.550   1.586
  127DMF     O1 2006   0.876   0.643   1.601
  127DMF     H1 2007   1.008   0.306   1.654
  127DMF     H2 2008   1.049   0.473   1.606
  127DMF     H3 2009   1.023   0.346   1.483
  127DMF     H4 2010   0.755   0.265   1.460
  127DMF     H5 2011   0.646   0.343   1.579
  127DMF     H6 2012   0.771   0.228   1.634
  127DMF     H7 2013   0.690   0.561   1.578
  128DMF     C1 2014   2.173   3.005   1.358
  128DMF     N1 2015   2.271   3.047   1.460
  128DMF     C2 2016   2.280   3.191   1.490
  128DMF     C3 2017   2.356   2.955   1.523
  128DMF     O1 2018   2.371   2.840   1.484
  128DMF     H1 2019   2.074   3.042   1.387
  128DMF     H2 2020   2.167   2.895   1.351
  128DMF     H3 2021   2.200   3.046   1.260
  128DMF     H4 2022   2.277   3.248   1.397
  128DMF     H5 2023   2.375   3.212   1.541
  128DMF     H6 2024   2.196   3.221   1.554
  128DMF     H7 2025   2.413   2.998   1.607
  129DMF     C1 2026   3.256   1.529   1.306
  129DMF     N1 2027   3.185   1.546   1.179
  129DMF     C2 2028   3.249   1.626   1.073
  129DMF     C3 2029   3.052   1.509   1.169
  129DMF     O1 2030   2.998   1.437   1.252
  129DMF     H1 2031   3.331   1.449   1.297
  129DMF     H2 2032   3.184   1.499   1.383
  129DMF     H3 2033   3.303   1.623   1.338
  129DMF     H4 2034   3.300   1.712   1.117
  129DMF     H5 2035   3.174   1.661   1.001
  129DMF     H6 2036   3.322   1.564   1.019
  129DMF     H7 2037   3.001   1.546   1.078
  130DMF     C1 2038   0.839   0.414   0.490
  130DMF     N1 2039   0.791   0.276   0.506
  130DMF     C2 2040   0.648   0.256   0.537
  130DMF     C3 2041   0.879   0.167   0.503
  130DMF     O1 2042   0.997   0.177   0.476
  130DMF     H1 2043   0.792   0.459   0.401
  130DMF     H2 2044   0.948   0.417   0.477
  130DMF     H3 2045   0.811   0.472   0.578
  130DMF     H4 2046   0.628   0.287   0.640
  130DMF     H5 2047   0.620   0.151   0.525
  130DMF     H6 2048   0.586   0.317   0.470
  130DMF     H7 2049   0.830   0.070   0.527
  131DMF     C1 2050   0.452   0.783   1.197
  131DMF     N1 2051   0.495   0.841   1.069
  131DMF     C2 2052   0.547   0.977   1.070
  131DMF     C3 2053   0.479   0.772   0.949
  131DMF     O1 2054   0.405   0.675   0.941
  131DMF     H1 2055   0.525   0.809   1.276
  131DMF     H2 2056   0.447   0.674   1.189
  131DMF     H3 2057   0.354   0.822   1.224
  131DMF     H4 2058   0.472   1.046   1.110
  131DMF     H5 2059   0.573   1.007   0.968
  131DMF     H6 2060   0.636   0.983   1.134
  131DMF     H7 2061   0.531   0.818   0.863
  132DMF     C1 2062   0.738   0.611   1.267
  132DMF     N1 2063   0.826   0.521   1.190
  132DMF     C2 2064   0.929   0.447   1.263
  132DMF     C3 2065   0.821   0.518   1.051
  132DMF     O1 2066   0.734   0.578   0.989
  132DMF     H1 2067   0.654   0.554   1.310
  132DMF     H2 2068   0.699   0.690   1.202
  132DMF     H3 2069   0.795   0.659   1.348
  132DMF     H4 2070   0.972   0.512   1.340
  132DMF     H5 2071   1.010   0.415   1.196
  132DMF     H6 2072   0.884   0.359   1.310
  132DMF     H7 2073   0.900   0.457   1.005
  133DMF     C1 2074   1.995   1.860   0.549
  133DMF     N1 2075   2.009   1.758   0.651
  133DMF     C2 2076   2.139   1.741   0.719
  133DMF     C3 2077   1.900   1.675   0.680
  133DMF     O1 2078   1.809   1.661   0.600
  133DMF     H1 2079   2.022   1.958   0.590
  133DMF     H2 2080   1.892   1.863   0.512
  133DMF     H3 2081   2.059   1.834   0.463
  133DMF     H4 2082   2.210   1.696   0.649
  133DMF     H5 2083   2.128   1.676   0.806
  133DMF     H6 2084   2.177   1.839   0.750
  133DMF     H7 2085   1.910   1.617   0.773
  134DMF     C1 2086   0.143   2.932   0.975
  134DMF     N1 2087   0.272   3.005   0.965
  134DMF     C2 2088   0.270   3.152   0.976
  134DMF     C3 2089   0.393   2.937   0.952
  134DMF     O1 2090   0.401   2.817   0.952
  134DMF     H1 2091   0.100   2.946   1.075
  134DMF     H2 2092   0.157   2.825   0.957
  134DMF     H3 2093   0.074   2.971   0.899
  134DMF     H4 2094   0.230   3.195   0.883
  134DMF     H5 2095   0.372   3.190   0.992
  134DMF     H6 2096   0.208   3.182   1.061
  134DMF     H7 2097   0.481   3.004   0.942
  135DMF     C1 2098   0.253   1.504   0.389
  135DMF     N1 2099   0.257   1.576   0.259
  135DMF     C2 2100   0.377   1.562   0.175
  135DMF     C3 2101   0.148   1.655   0.218
  135DMF     O1 2102   0.039   1.650   0.270
  135DMF     H1 2103   0.223   1.400   0.374
  135DMF     H2 2104   0.182   1.553   0.457
  135DMF     H3 2105   0.352   1.507   0.436
  135DMF     H4 2106   0.467   1.572   0.237
  135DMF     H5 2107   0.379   1.639   0.098
  135DMF     H6 2108   0.377   1.463   0.128
  135DMF     H7 2109   0.172   1.718   0.130
  136DMF     C1 2110   0.580   0.917   0.218
  136DMF     N1 2111   0.676   0.823   0.276
  136DMF     C2 2112   0.698   0.696   0.205
  136DMF     C3 2113   0.752   0.857   0.389
  136DMF     O1 2114   0.746   0.967   0.442
  136DMF     H1 2115   0.624   0.961   0.128
  136DMF     H2 2116   0.556   0.995   0.290
  136DMF     H3 2117   0.488   0.864   0.191
  136DMF     H4 2118   0.602   0.651   0.177
  136DMF     H5 2119   0.755   0.627   0.268
  136DMF     H6 2120   0.752   0.714   0.111
  136DMF     H7 2121   0.819   0.776   0.424
  137DMF     C1 2122   2.203   0.697   0.679
  137DMF     N1 2123   2.227   0.841   0.677
  137DMF     C2 2124   2.269   0.901   0.548
  137DMF     C3 2125   2.205   0.919   0.792
  137DMF     O1 2126   2.180   0.867   0.899
  137DMF     H1 2127   2.134   0.674   0.598
  137DMF     H2 2128   2.156   0.666   0.773
  137DMF     H3 2129   2.297   0.643   0.665
  137DMF     H4 2130   2.335   0.830   0.496
  137DMF     H5 2131   2.324   0.994   0.565
  137DMF     H6 2132   2.183   0.922   0.484
  137DMF     H7 2133   2.211   1.028   0.773
  138DMF     C1 2134   3.078   2.220   0.409
  138DMF     N1 2135   3.076   2.366   0.398
  138DMF     C2 2136   2.946   2.432   0.383
  138DMF     C3 2137   3.195   2.440   0.413
  138DMF     O1 2138   3.301   2.386   0.436
  138DMF     H1 2139   3.021   2.192   0.498
  138DMF     H2 2140   3.180   2.180   0.418
  138DMF     H3 2141   3.032   2.177   0.319
  138DMF     H4 2142   2.896   2.395   0.292
  138DMF     H5 2143   2.957   2.541   0.375
  138DMF     H6 2144   2.884   2.409   0.470
  138DMF     H7 2145   3.183   2.549   0.402
  139DMF     C1 2146   1.724   1.917   1.515
  139DMF     N1 2147   1.659   2.047   1.535
  139DMF     C2 2148   1.732   2.151   1.605
  139DMF     C3 2149   1.527   2.070   1.495
  139DMF     O1 2150   1.470   1.999   1.415
  139DMF     H1 2151   1.803   1.925   1.439
  139DMF     H2 2152   1.651   1.843   1.480
  139DMF     H3 2153   1.767   1.883   1.610
  139DMF     H4 2154   1.798   2.103   1.678
  139DMF     H5 2155   1.662   2.221   1.652
  139DMF     H6 2156   1.796   2.209   1.537
  139DMF     H7 2157   1.483   2.160   1.542
  140DMF     C1 2158   1.068   2.775   0.142
  140DMF     N1 2159   0.980   2.658   0.135
  140DMF     C2 2160   0.842   2.674   0.183
  140DMF     C3 2161   1.032   2.530   0.108
  140DMF     O1 2162   1.146   2.507   0.072
  140DMF     H1 2163   1.027   2.855   0.079
  140DMF     H2 2164   1.169   2.751   0.109
  140DMF     H3 2165   1.070   2.811   0.246
  140DMF     H4 2166   0.843   2.716   0.285
  140DMF     H5 2167   0.790   2.578   0.187
  140DMF     H6 2168   0.787   2.743   0.117
  140DMF     H7 2169   0.956   2.450   0.119
  141DMF     C1 2170   2.069   2.905   0.463
  141DMF     N1 2171   2.080   2.989   0.583
  141DMF     C2 2172   2.183   2.952   0.681
  141DMF     C3 2173   1.989   3.092   0.612
  141DMF     O1 2174   1.893   3.116   0.541
  141DMF     H1 2175   2.139   2.940   0.386
  141DMF     H2 2176   1.968   2.909   0.421
  141DMF     H3 2177   2.092   2.801   0.489
  141DMF     H4 2178   2.160   2.853   0.722
  141DMF     H5 2179   2.188   3.026   0.762
  141DMF     H6 2180   2.282   2.948   0.634
  141DMF     H7 2181   2.013   3.146   0.705
  142DMF     C1 2182   0.301   1.695   0.758
  142DMF     N1 2183   0.313   1.555   0.798
  142DMF     C2 2184   0.193   1.471   0.786
  142DMF     C3 2185   0.436   1.499   0.838
  142DMF     O1 2186   0.537   1.566   0.857
  142DMF     H1 2187   0.287   1.700   0.649
  142DMF     H2 2188   0.390   1.752   0.787
  142DMF     H3 2189   0.212   1.739   0.805
  142DMF     H4 2190   0.113   1.513   0.848
  142DMF     H5 2191   0.214   1.369   0.818
  142DMF     H6 2192   0.160   1.470   0.681
  142DMF     H7 2193   0.431   1.390   0.852
  143DMF     C1 2194   1.550   1.809   0.709
  143DMF     N1 2195   1.574   1.903   0.820
  143DMF     C2 2196   1.462   1.944   0.904
  143DMF     C3 2197   1.694   1.972   0.831
  143DMF     O1 2198   1.785   1.967   0.751
  143DMF     H1 2199   1.535   1.707   0.746
  143DMF     H2 2200   1.633   1.811   0.637
  143DMF     H3 2201   1.460   1.840   0.654
  143DMF     H4 2202   1.436   2.048   0.881
  143DMF     H5 2203   1.491   1.938   1.010
  143DMF     H6 2204   1.375   1.879   0.886
  143DMF     H7 2205   1.697   2.034   0.923
  144DMF     C1 2206   1.265   3.090   0.608
  144DMF     N1 2207   1.163   3.195   0.593
  144DMF     C2 2208   1.023   3.158   0.607
  144DMF     C3 2209   1.201   3.327   0.566
  144DMF     O1 2210   1.318   3.358   0.551
  144DMF     H1 2211   1.281   3.069   0.715
  144DMF     H2 2212   1.359   3.121   0.563
  144DMF     H3 2213   1.230   2.999   0.558
  144DMF     H4 2214   0.998   3.077   0.537
  144DMF     H5 2215   0.957   3.244   0.589
  144DMF     H6 2216   1.006   3.121   0.710
  144DMF     H7 2217   1.116   3.398   0.560
  145DMF     C1 2218   0.862   3.267   0.894
  145DMF     N1 2219   0.856   3.287   1.040
  145DMF     C2 2220   0.735   3.244   1.110
  145DMF     C3 2221   0.957   3.358   1.107
  145DMF     O1 2222   1.053   3.405   1.048
  145DMF     H1 2223   0.834   3.164   0.869
  145DMF     H2 2224   0.963   3.286   0.856
  145DMF     H3 2225   0.793   3.336   0.844
  145DMF     H4 2226   0.651   3.308   1.081
  145DMF     H5 2227   0.748   3.251   1.219
  145DMF     H6 2228   0.712   3.140   1.084
  145DMF     H7 2229   0.940   3.369   1.215
  146DMF     C1 2230   0.900   2.306   1.035
  146DMF     N1 2231   0.954   2.443   1.030
  146DMF     C2 2232   0.906   2.535   0.927
  146DMF     C3 2233   1.012   2.497   1.144
  146DMF     O1 2234   1.059   2.430   1.233
  146DMF     H1 2235   0.792   2.310   1.016
  146DMF     H2 2236   0.915   2.261   1.133
  146DMF     H3 2237   0.948   2.244   0.958
  146DMF     H4 2238   0.913   2.486   0.829
  146DMF     H5 2239   0.966   2.626   0.925
  146DMF     H6 2240   0.802   2.562   0.948
  146DMF     H7 2241   1.013   2.608   1.141
  147DMF     C1 2242   2.537   1.027   0.740
  147DMF     N1 2243   2.544   1.030   0.886
  147DMF     C2 2244   2.656   0.960   0.951
  147DMF     C3 2245   2.440   1.088   0.959
  147DMF     O1 2246   2.356   1.156   0.904
  147DMF     H1 2247   2.636   1.044   0.696
  147DMF     H2 2248   2.467   1.102   0.703
  147DMF     H3 2249   2.498   0.929   0.708
  147DMF     H4 2250   2.640   0.852   0.950
  147DMF     H5 2251   2.667   0.995   1.055
  147DMF     H6 2252   2.749   0.983   0.897
  147DMF     H7 2253   2.446   1.070   1.068
  148DMF     C1 2254   3.053   1.778   1.478
  148DMF     N1 2255   2.915   1.741   1.516
  148DMF     C2 2256   2.873   1.603   1.495
  148DMF     C3 2257   2.832   1.831   1.583
  148DMF     O1 2258   2.869   1.942   1.615
  148DMF     H1 2259   3.124   1.738   1.551
  148DMF     H2 2260   3.064   1.887   1.473
  148DMF     H3 2261   3.076   1.736   1.379
  148DMF     H4 2262   2.797   1.598   1.416
  148DMF     H5 2263   2.833   1.564   1.589
  148DMF     H6 2264   2.959   1.541   1.467
  148DMF     H7 2265   2.732   1.789   1.608
  149DMF     C1 2266   3.207   1.180   1.509
  149DMF     N1 2267   3.118   1.285   1.562
  149DMF     C2 2268   2.973   1.259   1.563
  149DMF     C3 2269   3.169   1.409   1.604
  149DMF     O1 2270   3.289   1.435   1.601
  149DMF     H1 2271   3.189   1.086   1.562
  149DMF     H2 2272   3.312   1.208   1.521
  149DMF     H3 2273   3.186   1.167   1.402
  149DMF     H4 2274   2.936   1.256   1.459
  149DMF     H5 2275   2.920   1.338   1.617
  149DMF     H6 2276   2.953   1.163   1.611
  149DMF     H7 2277   3.092   1.480   1.637
  150DMF     C1 2278   2.616   2.485   0.362
  150DMF     N1 2279   2.575   2.373   0.448
  150DMF     C2 2280   2.492   2.267   0.390
  150DMF     C3 2281   2.614   2.368   0.582
  150DMF     O1 2282   2.696   2.445   0.627
  150DMF     H1 2283   2.653   2.449   0.266
  150DMF     H2 2284   2.694   2.545   0.410
  150DMF     H3 2285   2.529   2.550   0.347
  150DMF     H4 2286   2.395   2.309   0.360
  150DMF     H5 2287   2.477   2.186   0.462
  150DMF     H6 2288   2.542   2.226   0.301
  150DMF     H7 2289   2.566   2.287   0.639
  151DMF     C1 2290   1.694   2.053   0.477
  151DMF     N1 2291   1.669   2.196   0.474
  151DMF     C2 2292   1.529   2.236   0.488
  151DMF     C3 2293   1.774   2.289   0.456
  151DMF     O1 2294   1.888   2.251   0.433
  151DMF     H1 2295   1.633   2.008   0.556
  151DMF     H2 2296   1.800   2.035   0.498
  151DMF     H3 2297   1.667   2.008   0.381
  151DMF     H4 2298   1.468   2.180   0.415
  151DMF     H5 2299   1.517   2.343   0.470
  151DMF     H6 2300   1.495   2.213   0.589
  151DMF     H7 2301   1.744   2.395   0.462
  152DMF     C1 2302   1.898   0.355   0.563
  152DMF     N1 2303   2.036   0.318   0.527
  152DMF     C2 2304   2.133   0.426   0.524
  152DMF     C3 2305   2.074   0.185   0.508
  152DMF     O1 2306   1.998   0.092   0.525
  152DMF     H1 2307   1.900   0.414   0.655
  152DMF     H2 2308   1.837   0.265   0.578
  152DMF     H3 2309   1.855   0.415   0.483
  152DMF     H4 2310   2.093   0.510   0.467
  152DMF     H5 2311   2.227   0.392   0.479
  152DMF     H6 2312   2.153   0.455   0.628
  152DMF     H7 2313   2.180   0.173   0.478
  153DMF     C1 2314   1.206   2.191   0.851
  153DMF     N1 2315   1.152   2.067   0.789
  153DMF     C2 2316   1.013   2.029   0.818
  153DMF     C3 2317   1.223   1.998   0.690
  153DMF     O1 2318   1.333   2.037   0.652
  153DMF     H1 2319   1.129   2.270   0.851
  153DMF     H2 2320   1.293   2.229   0.796
  153DMF     H3 2321   1.239   2.171   0.953
  153DMF     H4 2322   0.999   2.020   0.927
  153DMF     H5 2323   0.989   1.933   0.771
  153DMF     H6 2324   0.945   2.105   0.780
  153DMF     H7 2325   1.170   1.911   0.649
  154DMF     C1 2326   2.154   2.340   0.211
  154DMF     N1 2327   2.207   2.473   0.245
  154DMF     C2 2328   2.322   2.522   0.169
  154DMF     C3 2329   2.141   2.556   0.337
  154DMF     O1 2330   2.036   2.525   0.388
  154DMF     H1 2331   2.090   2.347   0.123
  154DMF     H2 2332   2.097   2.299   0.295
  154DMF     H3 2333   2.237   2.271   0.188
  154DMF     H4 2334   2.394   2.442   0.152
  154DMF     H5 2335   2.371   2.603   0.225
  154DMF     H6 2336   2.287   2.563   0.073
  154DMF     H7 2337   2.193   2.652   0.355
  155DMF     C1 2338   3.229   1.270   0.499
  155DMF     N1 2339   3.173   1.164   0.413
  155DMF     C2 2340   3.072   1.201   0.312
  155DMF     C3 2341   3.201   1.029   0.438
  155DMF     O1 2342   3.259   0.993   0.539
  155DMF     H1 2343   3.232   1.366   0.445
  155DMF     H2 2344   3.332   1.244   0.529
  155DMF     H3 2345   3.168   1.281   0.589
  155DMF     H4 2346   2.975   1.207   0.363
  155DMF     H5 2347   3.065   1.124   0.234
  155DMF     H6 2348   3.095   1.298   0.267
  155DMF     H7 2349   3.162   0.961   0.360
  156DMF     C1 2350   1.693   1.430   0.730
  156DMF     N1 2351   1.697   1.322   0.827
  156DMF     C2 2352   1.819   1.305   0.907
  156DMF     C3 2353   1.579   1.253   0.857
  156DMF     O1 2354   1.479   1.265   0.791
  156DMF     H1 2355   1.710   1.525   0.783
  156DMF     H2 2356   1.596   1.437   0.680
  156DMF     H3 2357   1.771   1.413   0.654
  156DMF     H4 2358   1.896   1.251   0.851
  156DMF     H5 2359   1.799   1.251   1.000
  156DMF     H6 2360   1.858   1.405   0.931
  156DMF     H7 2361   1.589   1.184   0.943
  157DMF     C1 2362   1.878   2.493   1.112
  157DMF     N1 2363   1.896   2.363   1.045
  157DMF     C2 2364   1.777   2.296   0.994
  157DMF     C3 2365   2.021   2.299   1.039
  157DMF     O1 2366   2.124   2.342   1.087
  157DMF     H1 2367   1.811   2.557   1.055
  157DMF     H2 2368   1.975   2.543   1.123
  157DMF     H3 2369   1.833   2.478   1.211
  157DMF     H4 2370   1.689   2.321   1.056
  157DMF     H5 2371   1.795   2.188   0.996
  157DMF     H6 2372   1.760   2.324   0.890
  157DMF     H7 2373   2.015   2.200   0.989
  158DMF     C1 2374   2.980   2.450   2.577
  158DMF     N1 2375   2.951   2.567   2.491
  158DMF     C2 2376   2.826   2.643   2.513
  158DMF     C3 2377   3.039   2.604   2.388
  158DMF     O1 2378   3.144   2.548   2.368
  158DMF     H1 2379   2.978   2.478   2.683
  158DMF     H2 2380   3.081   2.411   2.556
  158DMF     H3 2381   2.907   2.371   2.559
  158DMF     H4 2382   2.741   2.587   2.473
  158DMF     H5 2383   2.830   2.741   2.463
  158DMF     H6 2384   2.810   2.661   2.620
  158DMF     H7 2385   3.002   2.690   2.329
  159DMF     C1 2386   1.019   0.371   3.131
  159DMF     N1 2387   1.164   0.355   3.116
  159DMF     C2 2388   1.247   0.477   3.116
  159DMF     C3 2389   1.218   0.232   3.073
  159DMF     O1 2390   1.151   0.130   3.071
  159DMF     H1 2391   0.995   0.399   3.234
  159DMF     H2 2392   0.965   0.278   3.105
  159DMF     H3 2393   0.985   0.449   3.062
  159DMF     H4 2394   1.207   0.549   3.043
  159DMF     H5 2395   1.351   0.453   3.089
  159DMF     H6 2396   1.246   0.524   3.216
  159DMF     H7 2397   1.324   0.237   3.043
  160DMF     C1 2398   0.604   2.670   2.716
  160DMF     N1 2399   0.599   2.524   2.706
  160DMF     C2 2400   0.501   2.466   2.613
  160DMF     C3 2401   0.683   2.443   2.782
  160DMF     O1 2402   0.764   2.487   2.863
  160DMF     H1 2403   0.633   2.709   2.618
  160DMF     H2 2404   0.677   2.702   2.791
  160DMF     H3 2405   0.505   2.708   2.743
  160DMF     H4 2406   0.401   2.502   2.637
  160DMF     H5 2407   0.503   2.356   2.620
  160DMF     H6 2408   0.527   2.495   2.510
  160DMF     H7 2409   0.663   2.335   2.766
  161DMF     C1 2410   0.212   2.592   2.399
  161DMF     N1 2411   0.253   2.672   2.282
  161DMF     C2 2412   0.160   2.776   2.235
  161DMF     C3 2413   0.378   2.655   2.221
  161DMF     O1 2414   0.461   2.574   2.258
  161DMF     H1 2415   0.176   2.658   2.478
  161DMF     H2 2416   0.298   2.534   2.437
  161DMF     H3 2417   0.133   2.522   2.370
  161DMF     H4 2418   0.081   2.730   2.175
  161DMF     H5 2419   0.213   2.850   2.174
  161DMF     H6 2420   0.114   2.827   2.321
  161DMF     H7 2421   0.396   2.729   2.141
  162DMF     C1 2422   2.642   0.937   2.217
  162DMF     N1 2423   2.585   1.073   2.228
  162DMF     C2 2424   2.439   1.088   2.225
  162DMF     C3 2425   2.668   1.185   2.237
  162DMF     O1 2426   2.789   1.179   2.231
  162DMF     H1 2427   2.621   0.879   2.307
  162DMF     H2 2428   2.750   0.941   2.200
  162DMF     H3 2429   2.597   0.885   2.132
  162DMF     H4 2430   2.396   1.012   2.159
  162DMF     H5 2431   2.412   1.187   2.188
  162DMF     H6 2432   2.398   1.074   2.326
  162DMF     H7 2433   2.612   1.280   2.250
  163DMF     C1 2434   1.366   3.060   2.674
  163DMF     N1 2435   1.277   3.142   2.757
  163DMF     C2 2436   1.255   3.279   2.714
  163DMF     C3 2437   1.208   3.091   2.870
  163DMF     O1 2438   1.217   2.976   2.909
  163DMF     H1 2439   1.322   3.046   2.575
  163DMF     H2 2440   1.384   2.963   2.722
  163DMF     H3 2441   1.463   3.111   2.664
  163DMF     H4 2442   1.352   3.331   2.714
  163DMF     H5 2443   1.185   3.330   2.782
  163DMF     H6 2444   1.213   3.280   2.612
  163DMF     H7 2445   1.147   3.168   2.921
  164DMF     C1 2446   2.569   1.903   3.293
  164DMF     N1 2447   2.631   1.777   3.255
  164DMF     C2 2448   2.777   1.759   3.274
  164DMF     C3 2449   2.557   1.681   3.186
  164DMF     O1 2450   2.436   1.688   3.168
  164DMF     H1 2451   2.583   1.920   3.401
  164DMF     H2 2452   2.462   1.903   3.272
  164DMF     H3 2453   2.614   1.986   3.236
  164DMF     H4 2454   2.831   1.830   3.210
  164DMF     H5 2455   2.807   1.657   3.247
  164DMF     H6 2456   2.803   1.778   3.378
  164DMF     H7 2457   2.619   1.596   3.153
  165DMF     C1 2458   0.451   2.460   2.991
  165DMF     N1 2459   0.504   2.375   3.100
  165DMF     C2 2460   0.638   2.316   3.083
  165DMF     C3 2461   0.433   2.361   3.220
  165DMF     O1 2462   0.327   2.416   3.242
  165DMF     H1 2463   0.521   2.542   2.971
  165DMF     H2 2464   0.353   2.502   3.018
  165DMF     H3 2465   0.438   2.401   2.899
  165DMF     H4 2466   0.642   2.256   2.991
  165DMF     H5 2467   0.663   2.252   3.168
  165DMF     H6 2468   0.713   2.395   3.078
  165DMF     H7 2469   0.486   2.299   3.294
  166DMF     C1 2470   2.670   0.669   3.323
  166DMF     N1 2471   2.547   0.749   3.339
  166DMF     C2 2472   2.417   0.683   3.317
  166DMF     C3 2473   2.553   0.888   3.355
  166DMF     O1 2474   2.659   0.947   3.358
  166DMF     H1 2475   2.687   0.609   3.413
  166DMF     H2 2476   2.757   0.734   3.308
  166DMF     H3 2477   2.660   0.603   3.235
  166DMF     H4 2478   2.409   0.652   3.212
  166DMF     H5 2479   2.335   0.752   3.340
  166DMF     H6 2480   2.407   0.595   3.381
  166DMF     H7 2481   2.454   0.937   3.360
  167DMF     C1 2482   1.288   0.141   3.452
  167DMF     N1 2483   1.426   0.191   3.432
  167DMF     C2 2484   1.451   0.272   3.314
  167DMF     C3 2485   1.532   0.154   3.516
  167DMF     O1 2486   1.526   0.068   3.601
  167DMF     H1 2487   1.218   0.225   3.452
  167DMF     H2 2488   1.279   0.087   3.547
  167DMF     H3 2489   1.261   0.074   3.369
  167DMF     H4 2490   1.420   0.214   3.226
  167DMF     H5 2491   1.558   0.297   3.304
  167DMF     H6 2492   1.392   0.365   3.318
  167DMF     H7 2493   1.625   0.210   3.493
  168DMF     C1 2494   2.993   0.710   3.660
  168DMF     N1 2495   3.136   0.743   3.638
  168DMF     C2 2496   3.214   0.659   3.545
  168DMF     C3 2497   3.201   0.840   3.716
  168DMF     O1 2498   3.145   0.906   3.802
  168DMF     H1 2499   2.947   0.675   3.567
  168DMF     H2 2500   2.938   0.798   3.695
  168DMF     H3 2501   2.985   0.631   3.736
  168DMF     H4 2502   3.236   0.563   3.593
  168DMF     H5 2503   3.309   0.708   3.520
  168DMF     H6 2504   3.158   0.642   3.453
  168DMF     H7 2505   3.308   0.852   3.690
  169DMF     C1 2506   2.358   1.715   3.635
  169DMF     N1 2507   2.420   1.648   3.521
  169DMF     C2 2508   2.564   1.628   3.527
  169DMF     C3 2509   2.344   1.598   3.415
  169DMF     O1 2510   2.226   1.620   3.401
  169DMF     H1 2511   2.353   1.646   3.719
  169DMF     H2 2512   2.256   1.746   3.609
  169DMF     H3 2513   2.417   1.804   3.662
  169DMF     H4 2514   2.616   1.724   3.520
  169DMF     H5 2515   2.598   1.562   3.446
  169DMF     H6 2516   2.589   1.583   3.624
  169DMF     H7 2517   2.403   1.536   3.345
  170DMF     C1 2518   3.256   0.723   2.591
  170DMF     N1 2519   3.184   0.695   2.717
  170DMF     C2 2520   3.241   0.598   2.812
  170DMF     C3 2521   3.062   0.757   2.747
  170DMF     O1 2522   3.011   0.839   2.673
  170DMF     H1 2523   3.349   0.777   2.611
  170DMF     H2 2524   3.195   0.785   2.524
  170DMF     H3 2525   3.279   0.628   2.540
  170DMF     H4 2526   3.292   0.517   2.757
  170DMF     H5 2527   3.162   0.554   2.874
  170DMF     H6 2528   3.313   0.648   2.878
  170DMF     H7 2529   3.020   0.728   2.844
  171DMF     C1 2530   1.594   1.447   3.224
  171DMF     N1 2531   1.592   1.319   3.298
  171DMF     C2 2532   1.717   1.247   3.314
  171DMF     C3 2533   1.474   1.265   3.349
  171DMF     O1 2534   1.365   1.314   3.332
  171DMF     H1 2535   1.669   1.515   3.267
  171DMF     H2 2536   1.496   1.498   3.231
  171DMF     H3 2537   1.617   1.429   3.119
  171DMF     H4 2538   1.778   1.262   3.225
  171DMF     H5 2539   1.696   1.140   3.328
  171DMF     H6 2540   1.772   1.285   3.401
  171DMF     H7 2541   1.490   1.172   3.407
  172DMF     C1 2542   2.395   2.623   3.548
  172DMF     N1 2543   2.443   2.519   3.639
  172DMF     C2 2544   2.359   2.400   3.655
  172DMF     C3 2545   2.564   2.535   3.708
  172DMF     O1 2546   2.632   2.635   3.700
  172DMF     H1 2547   2.355   2.577   3.457
  172DMF     H2 2548   2.476   2.691   3.520
  172DMF     H3 2549   2.316   2.679   3.599
  172DMF     H4 2550   2.262   2.429   3.696
  172DMF     H5 2551   2.407   2.328   3.723
  172DMF     H6 2552   2.343   2.354   3.556
  172DMF     H7 2553   2.590   2.449   3.773
  173DMF     C1 2554   1.831   1.097   2.196
  173DMF     N1 2555   1.967   1.044   2.196
  173DMF     C2 2556   2.072   1.139   2.221
  173DMF     C3 2557   1.994   0.907   2.194
  173DMF     O1 2558   1.909   0.821   2.193
  173DMF     H1 2559   1.804   1.131   2.297
  173DMF     H2 2560   1.761   1.021   2.158
  173DMF     H3 2561   1.823   1.188   2.135
  173DMF     H4 2562   2.054   1.232   2.166
  173DMF     H5 2563   2.170   1.098   2.197
  173DMF     H6 2564   2.062   1.157   2.329
  173DMF     H7 2565   2.103   0.886   2.191
  174DMF     C1 2566   2.763   2.037   2.993
  174DMF     N1 2567   2.637   2.082   2.931
  174DMF     C2 2568   2.642   2.202   2.852
  174DMF     C3 2569   2.518   2.010   2.939
  174DMF     O1 2570   2.513   1.899   2.984
  174DMF     H1 2571   2.834   2.009   2.914
  174DMF     H2 2572   2.746   1.951   3.058
  174DMF     H3 2573   2.806   2.119   3.052
  174DMF     H4 2574   2.650   2.289   2.919
  174DMF     H5 2575   2.551   2.211   2.790
  174DMF     H6 2576   2.729   2.199   2.786
  174DMF     H7 2577   2.431   2.063   2.897
  175DMF     C1 2578   2.125   1.391   3.129
  175DMF     N1 2579   2.044   1.332   3.022
  175DMF     C2 2580   1.916   1.397   2.990
  175DMF     C3 2581   2.089   1.219   2.954
  175DMF     O1 2582   2.187   1.157   2.988
  175DMF     H1 2583   2.139   1.498   3.110
  175DMF     H2 2584   2.224   1.344   3.135
  175DMF     H3 2585   2.071   1.376   3.223
  175DMF     H4 2586   1.851   1.395   3.077
  175DMF     H5 2587   1.867   1.344   2.907
  175DMF     H6 2588   1.934   1.501   2.961
  175DMF     H7 2589   2.024   1.190   2.869
  176DMF     C1 2590   2.758   2.877   3.314
  176DMF     N1 2591   2.903   2.859   3.330
  176DMF     C2 2592   2.949   2.749   3.417
  176DMF     C3 2593   2.994   2.940   3.261
  176DMF     O1 2594   2.959   3.036   3.194
  176DMF     H1 2595   2.711   2.782   3.285
  176DMF     H2 2596   2.736   2.951   3.237
  176DMF     H3 2597   2.714   2.911   3.409
  176DMF     H4 2598   2.912   2.765   3.519
  176DMF     H5 2599   3.058   2.743   3.418
  176DMF     H6 2600   2.909   2.653   3.380
  176DMF     H7 2601   3.099   2.909   3.275
  177DMF     C1 2602   2.692   2.195   2.372
  177DMF     N1 2603   2.805   2.102   2.392
  177DMF     C2 2604   2.835   2.054   2.527
  177DMF     C3 2605   2.888   2.068   2.285
  177DMF     O1 2606   2.864   2.109   2.174
  177DMF     H1 2607   2.598   2.148   2.404
  177DMF     H2 2608   2.681   2.224   2.267
  177DMF     H3 2609   2.710   2.287   2.430
  177DMF     H4 2610   2.857   2.138   2.593
  177DMF     H5 2611   2.923   1.988   2.523
  177DMF     H6 2612   2.750   1.997   2.565
  177DMF     H7 2613   2.971   2.000   2.310
  178DMF     C1 2614   1.236   0.688   2.736
  178DMF     N1 2615   1.375   0.638   2.725
  178DMF     C2 2616   1.464   0.653   2.840
  178DMF     C3 2617   1.417   0.564   2.613
  178DMF     O1 2618   1.349   0.553   2.513
  178DMF     H1 2619   1.192   0.654   2.831
  178DMF     H2 2620   1.174   0.651   2.654
  178DMF     H3 2621   1.236   0.798   2.734
  178DMF     H4 2622   1.490   0.759   2.846
  178DMF     H5 2623   1.554   0.593   2.826
  178DMF     H6 2624   1.413   0.621   2.932
  178DMF     H7 2625   1.520   0.525   2.621
  179DMF     C1 2626   1.545   2.749   2.197
  179DMF     N1 2627   1.646   2.683   2.277
  179DMF     C2 2628   1.761   2.617   2.214
  179DMF     C3 2629   1.650   2.710   2.413
  179DMF     O1 2630   1.567   2.778   2.469
  179DMF     H1 2631   1.593   2.833   2.143
  179DMF     H2 2632   1.465   2.791   2.258
  179DMF     H3 2633   1.500   2.675   2.130
  179DMF     H4 2634   1.727   2.534   2.150
  179DMF     H5 2635   1.830   2.576   2.289
  179DMF     H6 2636   1.817   2.691   2.155
  179DMF     H7 2637   1.740   2.666   2.459
  180DMF     C1 2638   2.575   0.770   3.660
  180DMF     N1 2639   2.461   0.864   3.655
  180DMF     C2 2640   2.325   0.809   3.658
  180DMF     C3 2641   2.480   1.003   3.650
  180DMF     O1 2642   2.590   1.054   3.639
  180DMF     H1 2643   2.597   0.746   3.765
  180DMF     H2 2644   2.664   0.815   3.614
  180DMF     H3 2645   2.550   0.678   3.606
  180DMF     H4 2646   2.310   0.745   3.571
  180DMF     H5 2647   2.252   0.891   3.655
  180DMF     H6 2648   2.310   0.752   3.750
  180DMF     H7 2649   2.386   1.060   3.655
  181DMF     C1 2650   0.492   0.366   2.565
  181DMF     N1 2651   0.358   0.308   2.540
  181DMF     C2 2652   0.349   0.189   2.453
  181DMF     C3 2653   0.242   0.359   2.600
  181DMF     O1 2654   0.243   0.454   2.676
  181DMF     H1 2655   0.550   0.298   2.629
  181DMF     H2 2656   0.484   0.463   2.615
  181DMF     H3 2657   0.545   0.380   2.470
  181DMF     H4 2658   0.396   0.210   2.356
  181DMF     H5 2659   0.245   0.161   2.436
  181DMF     H6 2660   0.401   0.105   2.501
  181DMF     H7 2661   0.150   0.305   2.572
  182DMF     C1 2662   1.264   1.675   3.676
  182DMF     N1 2663   1.370   1.633   3.583
  182DMF     C2 2664   1.463   1.733   3.528
  182DMF     C3 2665   1.388   1.498   3.555
  182DMF     O1 2666   1.319   1.410   3.605
  182DMF     H1 2667   1.302   1.752   3.744
  182DMF     H2 2668   1.230   1.590   3.737
  182DMF     H3 2669   1.178   1.712   3.619
  182DMF     H4 2670   1.408   1.813   3.477
  182DMF     H5 2671   1.529   1.687   3.454
  182DMF     H6 2672   1.524   1.776   3.608
  182DMF     H7 2673   1.474   1.480   3.489
  183DMF     C1 2674   1.495   3.062   3.001
  183DMF     N1 2675   1.528   3.204   2.979
  183DMF     C2 2676   1.659   3.233   2.920
  183DMF     C3 2677   1.436   3.306   3.003
  183DMF     O1 2678   1.329   3.287   3.057
  183DMF     H1 2679   1.500   3.006   2.907
  183DMF     H2 2680   1.393   3.051   3.041
  183DMF     H3 2681   1.564   3.018   3.074
  183DMF     H4 2682   1.735   3.216   2.997
  183DMF     H5 2683   1.664   3.338   2.887
  183DMF     H6 2684   1.676   3.166   2.835
  183DMF     H7 2685   1.470   3.406   2.968
  184DMF     C1 2686   3.111   3.052   3.555
  184DMF     N1 2687   3.187   3.162   3.493
  184DMF     C2 2688   3.257   3.135   3.366
  184DMF     C3 2689   3.180   3.293   3.543
  184DMF     O1 2690   3.115   3.323   3.642
  184DMF     H1 2691   3.017   3.038   3.500
  184DMF     H2 2692   3.087   3.075   3.659
  184DMF     H3 2693   3.169   2.959   3.550
  184DMF     H4 2694   3.317   3.043   3.374
  184DMF     H5 2695   3.323   3.218   3.340
  184DMF     H6 2696   3.184   3.123   3.285
  184DMF     H7 2697   3.238   3.365   3.484
  185DMF     C1 2698   2.016   2.234   3.408
  185DMF     N1 2699   1.959   2.226   3.544
  185DMF     C2 2700   1.957   2.350   3.624
  185DMF     C3 2701   1.880   2.117   3.582
  185DMF     O1 2702   1.849   2.027   3.507
  185DMF     H1 2703   1.978   2.324   3.360
  185DMF     H2 2704   1.987   2.148   3.347
  185DMF     H3 2705   2.126   2.239   3.413
  185DMF     H4 2706   2.060   2.386   3.639
  185DMF     H5 2707   1.910   2.331   3.721
  185DMF     H6 2708   1.899   2.427   3.571
  185DMF     H7 2709   1.850   2.119   3.689
  186DMF     C1 2710   1.412   1.641   2.935
  186DMF     N1 2711   1.319   1.730   3.005
  186DMF     C2 2712   1.191   1.757   2.940
  186DMF     C3 2713   1.343   1.776   3.134
  186DMF     O1 2714   1.438   1.744   3.203
  186DMF     H1 2715   1.353   1.564   2.883
  186DMF     H2 2716   1.480   1.592   3.006
  186DMF     H3 2717   1.470   1.698   2.862
  186DMF     H4 2718   1.204   1.765   2.831
  186DMF     H5 2719   1.150   1.851   2.979
  186DMF     H6 2720   1.122   1.675   2.961
  186DMF     H7 2721   1.262   1.843   3.169
  187DMF     C1 2722   0.473   2.777   3.101
  187DMF     N1 2723   0.330   2.756   3.126
  187DMF     C2 2724   0.287   2.735   3.265
  187DMF     C3 2725   0.238   2.743   3.019
  187DMF     O1 2726   0.274   2.753   2.903
  187DMF     H1 2727   0.508   2.866   3.154
  187DMF     H2 2728   0.495   2.788   2.994
  187DMF     H3 2729   0.527   2.689   3.138
  187DMF     H4 2730   0.357   2.666   3.315
  187DMF     H5 2731   0.186   2.692   3.270
  187DMF     H6 2732   0.288   2.831   3.319
  187DMF     H7 2733   0.134   2.723   3.051
  188DMF     C1 2734   0.873   1.789   3.019
  188DMF     N1 2735   0.804   1.690   2.936
  188DMF     C2 2736   0.680   1.634   2.989
  188DMF     C3 2737   0.847   1.661   2.805
  188DMF     O1 2738   0.952   1.700   2.757
  188DMF     H1 2739   0.798   1.851   3.069
  188DMF     H2 2740   0.935   1.854   2.957
  188DMF     H3 2741   0.934   1.738   3.095
  188DMF     H4 2742   0.704   1.566   3.072
  188DMF     H5 2743   0.624   1.581   2.911
  188DMF     H6 2744   0.617   1.715   3.028
  188DMF     H7 2745   0.776   1.596   2.750
  189DMF     C1 2746   3.254   1.585   2.711
  189DMF     N1 2747   3.292   1.623   2.849
  189DMF     C2 2748   3.283   1.521   2.955
  189DMF     C3 2749   3.335   1.752   2.879
  189DMF     O1 2750   3.325   1.845   2.801
  189DMF     H1 2751   3.309   1.494   2.683
  189DMF     H2 2752   3.279   1.665   2.640
  189DMF     H3 2753   3.146   1.565   2.706
  189DMF     H4 2754   3.180   1.484   2.964
  189DMF     H5 2755   3.312   1.564   3.051
  189DMF     H6 2756   3.348   1.437   2.929
  189DMF     H7 2757   3.375   1.762   2.982
  190DMF     C1 2758   3.278   1.186   3.109
  190DMF     N1 2759   3.149   1.129   3.153
  190DMF     C2 2760   3.037   1.222   3.173
  190DMF     C3 2761   3.131   0.990   3.166
  190DMF     O1 2762   3.216   0.908   3.135
  190DMF     H1 2763   3.262   1.247   3.020
  190DMF     H2 2764   3.351   1.107   3.085
  190DMF     H3 2765   3.319   1.249   3.189
  190DMF     H4 2766   3.072   1.312   3.224
  190DMF     H5 2767   2.959   1.175   3.233
  190DMF     H6 2768   2.995   1.251   3.076
  190DMF     H7 2769   3.031   0.962   3.205
  191DMF     C1 2770   0.891   2.333   2.381
  191DMF     N1 2771   0.837   2.468   2.365
  191DMF     C2 2772   0.856   2.566   2.472
  191DMF     C3 2773   0.758   2.501   2.254
  191DMF     O1 2774   0.731   2.417   2.171
  191DMF     H1 2775   0.986   2.336   2.436
  191DMF     H2 2776   0.910   2.287   2.283
  191DMF     H3 2777   0.818   2.271   2.434
  191DMF     H4 2778   0.833   2.520   2.569
  191DMF     H5 2779   0.791   2.653   2.457
  191DMF     H6 2780   0.961   2.599   2.472
  191DMF     H7 2781   0.725   2.607   2.251
  192DMF     C1 2782   1.084   0.433   3.666
  192DMF     N1 2783   1.210   0.459   3.594
  192DMF     C2 2784   1.204   0.547   3.479
  192DMF     C3 2785   1.331   0.402   3.637
  192DMF     O1 2786   1.336   0.318   3.724
  192DMF     H1 2787   1.061   0.520   3.729
  192DMF     H2 2788   1.093   0.344   3.730
  192DMF     H3 2789   1.003   0.418   3.595
  192DMF     H4 2790   1.128   0.510   3.408
  192DMF     H5 2791   1.300   0.550   3.427
  192DMF     H6 2792   1.177   0.649   3.512
  192DMF     H7 2793   1.419   0.438   3.581
  193DMF     C1 2794   1.894   0.148   2.289
  193DMF     N1 2795   1.845   0.283   2.254
  193DMF     C2 2796   1.944   0.388   2.236
  193DMF     C3 2797   1.709   0.308   2.228
  193DMF     O1 2798   1.625   0.220   2.231
  193DMF     H1 2799   1.956   0.109   2.208
  193DMF     H2 2800   1.811   0.079   2.307
  193DMF     H3 2801   1.955   0.153   2.380
  193DMF     H4 2802   1.978   0.426   2.334
  193DMF     H5 2803   1.904   0.472   2.178
  193DMF     H6 2804   2.030   0.346   2.182
  193DMF     H7 2805   1.687   0.414   2.205
  194DMF     C1 2806   2.864   0.562   2.984
  194DMF     N1 2807   2.743   0.585   2.905
  194DMF     C2 2808   2.750   0.671   2.787
  194DMF     C3 2809   2.622   0.525   2.940
  194DMF     O1 2810   2.610   0.454   3.038
  194DMF     H1 2811   2.945   0.528   2.918
  194DMF     H2 2812   2.845   0.483   3.058
  194DMF     H3 2813   2.894   0.654   3.035
  194DMF     H4 2814   2.784   0.771   2.816
  194DMF     H5 2815   2.652   0.678   2.738
  194DMF     H6 2816   2.822   0.627   2.717
  194DMF     H7 2817   2.538   0.552   2.873
  195DMF     C1 2818   3.006   0.642   2.364
  195DMF     N1 2819   2.950   0.778   2.364
  195DMF     C2 2820   2.999   0.871   2.262
  195DMF     C3 2821   2.837   0.812   2.440
  195DMF     O1 2822   2.778   0.730   2.509
  195DMF     H1 2823   2.982   0.595   2.268
  195DMF     H2 2824   2.964   0.583   2.446
  195DMF     H3 2825   3.115   0.647   2.374
  195DMF     H4 2826   3.109   0.863   2.256
  195DMF     H5 2827   2.972   0.974   2.288
  195DMF     H6 2828   2.956   0.845   2.165
  195DMF     H7 2829   2.806   0.917   2.430
  196DMF     C1 2830   2.085   2.568   3.363
  196DMF     N1 2831   2.089   2.660   3.247
  196DMF     C2 2832   2.026   2.790   3.263
  196DMF     C3 2833   2.122   2.615   3.119
  196DMF     O1 2834   2.147   2.499   3.095
  196DMF     H1 2835   2.138   2.612   3.448
  196DMF     H2 2836   2.131   2.472   3.338
  196DMF     H3 2837   1.980   2.551   3.392
  196DMF     H4 2838   1.927   2.775   3.308
  196DMF     H5 2839   2.015   2.837   3.165
  196DMF     H6 2840   2.088   2.854   3.327
  196DMF     H7 2841   2.119   2.694   3.042
  197DMF     C1 2842   2.594   2.436   3.334
  197DMF     N1 2843   2.520   2.416   3.208
  197DMF     C2 2844   2.388   2.353   3.213
  197DMF     C3 2845   2.572   2.461   3.087
  197DMF     O1 2846   2.678   2.519   3.080
  197DMF     H1 2847   2.571   2.536   3.374
  197DMF     H2 2848   2.702   2.431   3.315
  197DMF     H3 2849   2.566   2.359   3.406
  197DMF     H4 2850   2.397   2.247   3.237
  197DMF     H5 2851   2.340   2.361   3.114
  197DMF     H6 2852   2.326   2.404   3.288
  197DMF     H7 2853   2.507   2.441   3.000
  198DMF     C1 2854   2.862   1.740   2.234
  198DMF     N1 2855   2.813   1.601   2.222
  198DMF     C2 2856   2.668   1.578   2.215
  198DMF     C3 2857   2.903   1.496   2.202
  198DMF     O1 2858   3.024   1.509   2.215
  198DMF     H1 2859   2.799   1.807   2.174
  198DMF     H2 2860   2.965   1.748   2.198
  198DMF     H3 2861   2.858   1.772   2.339
  198DMF     H4 2862   2.626   1.579   2.317
  198DMF     H5 2863   2.646   1.480   2.170
  198DMF     H6 2864   2.619   1.656   2.156
  198DMF     H7 2865   2.854   1.400   2.177
  199DMF     C1 2866   2.578   1.760   2.502
  199DMF     N1 2867   2.497   1.874   2.455
  199DMF     C2 2868   2.451   1.873   2.316
  199DMF     C3 2869   2.469   1.982   2.539
  199DMF     O1 2870   2.512   1.992   2.652
  199DMF     H1 2871   2.521   1.667   2.492
  199DMF     H2 2872   2.606   1.772   2.608
  199DMF     H3 2873   2.670   1.754   2.443
  199DMF     H4 2874   2.538   1.877   2.248
  199DMF     H5 2875   2.387   1.960   2.296
  199DMF     H6 2876   2.394   1.781   2.296
  199DMF     H7 2877   2.405   2.059   2.491
  200DMF     C1 2878   2.491   1.043   3.078
  200DMF     N1 2879   2.625   0.983   3.067
  200DMF     C2 2880   2.741   1.067   3.096
  200DMF     C3 2881   2.642   0.846   3.055
  200DMF     O1 2882   2.549   0.771   3.038
  200DMF     H1 2883   2.481   1.095   3.174
  200DMF     H2 2884   2.412   0.967   3.072
  200DMF     H3 2885   2.476   1.114   2.996
  200DMF     H4 2886   2.756   1.135   3.011
  200DMF     H5 2887   2.830   1.006   3.110
  200DMF     H6 2888   2.722   1.125   3.187
  200DMF     H7 2889   2.747   0.814   3.061
  201DMF     C1 2890   0.192   1.075   2.823
  201DMF     N1 2891   0.323   1.083   2.757
  201DMF     C2 2892   0.384   0.959   2.704
  201DMF     C3 2893   0.385   1.206   2.738
  201DMF     O1 2894   0.333   1.312   2.767
  201DMF     H1 2895   0.123   1.017   2.760
  201DMF     H2 2896   0.150   1.175   2.838
  201DMF     H3 2897   0.205   1.027   2.920
  201DMF     H4 2898   0.408   0.891   2.787
  201DMF     H5 2899   0.476   0.982   2.649
  201DMF     H6 2900   0.315   0.909   2.635
  201DMF     H7 2901   0.488   1.197   2.698
  202DMF     C1 2902   2.926   0.997   3.484
  202DMF     N1 2903   3.017   1.086   3.560
  202DMF     C2 2904   3.147   1.119   3.500
  202DMF     C3 2905   2.986   1.126   3.691
  202DMF     O1 2906   2.883   1.095   3.748
  202DMF     H1 2907   2.890   1.048   3.394
  202DMF     H2 2908   2.839   0.969   3.545
  202DMF     H3 2909   2.979   0.905   3.455
  202DMF     H4 2910   3.193   1.028   3.459
  202DMF     H5 2911   3.214   1.162   3.576
  202DMF     H6 2912   3.133   1.192   3.420
  202DMF     H7 2913   3.064   1.191   3.737
  203DMF     C1 2914   3.068   2.047   3.248
  203DMF     N1 2915   3.205   2.055   3.197
  203DMF     C2 2916   3.241   1.964   3.089
  203DMF     C3 2917   3.304   2.127   3.266
  203DMF     O1 2918   3.280   2.194   3.364
  203DMF     H1 2919   2.997   2.033   3.165
  203DMF     H2 2920   3.041   2.140   3.301
  203DMF     H3 2921   3.059   1.962   3.317
  203DMF     H4 2922   3.247   1.863   3.130
  203DMF     H5 2923   3.337   1.993   3.046
  203DMF     H6 2924   3.164   1.967   3.011
  203DMF     H7 2925   3.404   2.119   3.220
  204DMF     C1 2926   1.648   3.052   2.429
  204DMF     N1 2927   1.722   3.065   2.303
  204DMF     C2 2928   1.688   3.180   2.219
  204DMF     C3 2929   1.818   2.972   2.260
  204DMF     O1 2930   1.861   2.881   2.329
  204DMF     H1 2931   1.635   3.150   2.476
  204DMF     H2 2932   1.700   2.985   2.499
  204DMF     H3 2933   1.548   3.011   2.407
  204DMF     H4 2934   1.599   3.156   2.159
  204DMF     H5 2935   1.773   3.203   2.153
  204DMF     H6 2936   1.667   3.268   2.281
  204DMF     H7 2937   1.855   2.993   2.158
  205DMF     C1 2938   2.298   2.313   2.832
  205DMF     N1 2939   2.157   2.354   2.821
  205DMF     C2 2940   2.055   2.258   2.863
  205DMF     C3 2941   2.120   2.489   2.802
  205DMF     O1 2942   2.198   2.579   2.777
  205DMF     H1 2943   2.312   2.260   2.927
  205DMF     H2 2944   2.365   2.399   2.829
  205DMF     H3 2945   2.323   2.244   2.750
  205DMF     H4 2946   2.031   2.188   2.781
  205DMF     H5 2947   1.962   2.312   2.885
  205DMF     H6 2948   2.086   2.204   2.953
  205DMF     H7 2949   2.011   2.504   2.813
  206DMF     C1 2950   2.015   0.869   2.952
  206DMF     N1 2951   2.044   0.764   3.048
  206DMF     C2 2952   1.976   0.636   3.031
  206DMF     C3 2953   2.137   0.781   3.151
  206DMF     O1 2954   2.195   0.887   3.171
  206DMF     H1 2955   2.068   0.849   2.858
  206DMF     H2 2956   2.048   0.966   2.992
  206DMF     H3 2957   1.907   0.874   2.933
  206DMF     H4 2958   1.874   0.642   3.069
  206DMF     H5 2959   2.032   0.559   3.086
  206DMF     H6 2960   1.973   0.609   2.924
  206DMF     H7 2961   2.155   0.689   3.209
  207DMF     C1 2962   1.225   1.054   2.435
  207DMF     N1 2963   1.337   0.992   2.504
  207DMF     C2 2964   1.356   0.850   2.493
  207DMF     C3 2965   1.422   1.068   2.582
  207DMF     O1 2966   1.403   1.185   2.607
  207DMF     H1 2967   1.217   1.016   2.332
  207DMF     H2 2968   1.237   1.163   2.431
  207DMF     H3 2969   1.134   1.029   2.491
  207DMF     H4 2970   1.260   0.797   2.494
  207DMF     H5 2971   1.421   0.817   2.576
  207DMF     H6 2972   1.410   0.825   2.401
  207DMF     H7 2973   1.503   1.008   2.628
  208DMF     C1 2974   0.607   1.136   3.471
  208DMF     N1 2975   0.695   1.115   3.355
  208DMF     C2 2976   0.691   0.987   3.284
  208DMF     C3 2977   0.786   1.212   3.314
  208DMF     O1 2978   0.805   1.314   3.377
  208DMF     H1 2979   0.502   1.126   3.440
  208DMF     H2 2980   0.621   1.236   3.513
  208DMF     H3 2981   0.630   1.062   3.549
  208DMF     H4 2982   0.731   0.908   3.350
  208DMF     H5 2983   0.754   0.990   3.194
  208DMF     H6 2984   0.588   0.963   3.255
  208DMF     H7 2985   0.839   1.185   3.222
  209DMF     C1 2986   2.672   3.224   3.023
  209DMF     N1 2987   2.702   3.267   2.885
  209DMF     C2 2988   2.612   3.223   2.777
  209DMF     C3 2989   2.815   3.346   2.855
  209DMF     O1 2990   2.892   3.388   2.939
  209DMF     H1 2991   2.572   3.257   3.051
  209DMF     H2 2992   2.744   3.266   3.094
  209DMF     H3 2993   2.678   3.114   3.030
  209DMF     H4 2994   2.614   3.114   2.768
  209DMF     H5 2995   2.644   3.265   2.681
  209DMF     H6 2996   2.510   3.256   2.798
  209DMF     H7 2997   2.825   3.367   2.747
  210DMF     C1 2998   0.960   2.160   2.923
  210DMF     N1 2999   1.015   2.129   2.791
  210DMF     C2 3000   1.129   2.037   2.783
  210DMF     C3 3001   0.949   2.163   2.673
  210DMF     O1 3002   0.846   2.229   2.673
  210DMF     H1 3003   0.890   2.080   2.953
  210DMF     H2 3004   0.906   2.255   2.921
  210DMF     H3 3005   1.041   2.166   2.997
  210DMF     H4 3006   1.193   2.046   2.871
  210DMF     H5 3007   1.188   2.061   2.693
  210DMF     H6 3008   1.089   1.936   2.774
  210DMF     H7 3009   0.998   2.126   2.582
  211DMF     C1 3010   0.511   2.260   2.333
  211DMF     N1 3011   0.457   2.167   2.434
  211DMF     C2 3012   0.545   2.061   2.483
  211DMF     C3 3013   0.327   2.183   2.487
  211DMF     O1 3014   0.254   2.277   2.459
  211DMF     H1 3015   0.592   2.319   2.377
  211DMF     H2 3016   0.433   2.329   2.297
  211DMF     H3 3017   0.550   2.204   2.247
  211DMF     H4 3018   0.577   1.998   2.400
  211DMF     H5 3019   0.494   1.999   2.557
  211DMF     H6 3020   0.634   2.106   2.530
  211DMF     H7 3021   0.299   2.104   2.559
  212DMF     C1 3022   1.018   2.704   2.724
  212DMF     N1 3023   1.122   2.600   2.699
  212DMF     C2 3024   1.085   2.459   2.714
  212DMF     C3 3025   1.258   2.635   2.704
  212DMF     O1 3026   1.297   2.749   2.690
  212DMF     H1 3027   0.966   2.733   2.631
  212DMF     H2 3028   1.063   2.794   2.767
  212DMF     H3 3029   0.944   2.666   2.796
  212DMF     H4 3030   1.018   2.446   2.800
  212DMF     H5 3031   1.174   2.397   2.727
  212DMF     H6 3032   1.032   2.426   2.623
  212DMF     H7 3033   1.325   2.549   2.714
  213DMF     C1 3034   2.432   1.360   2.457
  213DMF     N1 3035   2.301   1.376   2.394
  213DMF     C2 3036   2.190   1.311   2.463
  213DMF     C3 3037   2.280   1.462   2.285
  213DMF     O1 3038   2.370   1.523   2.232
  213DMF     H1 3039   2.423   1.387   2.563
  213DMF     H2 3040   2.508   1.423   2.410
  213DMF     H3 3041   2.463   1.255   2.451
  213DMF     H4 3042   2.206   1.202   2.463
  213DMF     H5 3043   2.096   1.337   2.413
  213DMF     H6 3044   2.184   1.345   2.567
  213DMF     H7 3045   2.174   1.468   2.254
  214DMF     C1 3046   2.466   1.556   2.796
  214DMF     N1 3047   2.326   1.592   2.782
  214DMF     C2 3048   2.296   1.734   2.778
  214DMF     C3 3049   2.224   1.497   2.793
  214DMF     O1 3050   2.247   1.378   2.786
  214DMF     H1 3051   2.525   1.604   2.716
  214DMF     H2 3052   2.481   1.447   2.790
  214DMF     H3 3053   2.502   1.592   2.893
  214DMF     H4 3054   2.345   1.785   2.863
  214DMF     H5 3055   2.188   1.751   2.784
  214DMF     H6 3056   2.336   1.775   2.685
  214DMF     H7 3057   2.123   1.540   2.804
  215DMF     C1 3058   2.978   1.654   2.923
  215DMF     N1 3059   2.890   1.729   2.832
  215DMF     C2 3060   2.946   1.780   2.707
  215DMF     C3 3061   2.756   1.749   2.863
  215DMF     O1 3062   2.708   1.690   2.957
  215DMF     H1 3063   3.004   1.559   2.875
  215DMF     H2 3064   2.928   1.632   3.018
  215DMF     H3 3065   3.068   1.713   2.944
  215DMF     H4 3066   3.026   1.852   2.730
  215DMF     H5 3067   2.867   1.828   2.649
  215DMF     H6 3068   2.987   1.697   2.648
  215DMF     H7 3069   2.701   1.817   2.796
  216DMF     C1 3070   3.213   1.934   2.494
  216DMF     N1 3071   3.187   2.078   2.515
  216DMF     C2 3072   3.184   2.127   2.654
  216DMF     C3 3073   3.188   2.168   2.406
  216DMF     O1 3074   3.188   2.129   2.291
  216DMF     H1 3075   3.310   1.908   2.537
  216DMF     H2 3076   3.214   1.909   2.387
  216DMF     H3 3077   3.135   1.875   2.543
  216DMF     H4 3078   3.101   2.080   2.708
  216DMF     H5 3079   3.171   2.236   2.657
  216DMF     H6 3080   3.278   2.102   2.704
  216DMF     H7 3081   3.185   2.275   2.435
  217DMF     C1 3082   1.644   1.977   3.019
  217DMF     N1 3083   1.597   1.986   3.159
  217DMF     C2 3084   1.687   1.939   3.264
  217DMF     C3 3085   1.469   2.031   3.193
  217DMF     O1 3086   1.385   2.068   3.113
  217DMF     H1 3087   1.725   2.049   3.003
  217DMF     H2 3088   1.562   1.998   2.948
  217DMF     H3 3089   1.682   1.876   3.000
  217DMF     H4 3090   1.720   1.836   3.242
  217DMF     H5 3091   1.637   1.939   3.362
  217DMF     H6 3092   1.775   2.005   3.269
  217DMF     H7 3093   1.450   2.028   3.302
  218DMF     C1 3094   0.449   1.627   2.351
  218DMF     N1 3095   0.531   1.582   2.465
  218DMF     C2 3096   0.669   1.537   2.437
  218DMF     C3 3097   0.481   1.584   2.597
  218DMF     O1 3098   0.368   1.619   2.623
  218DMF     H1 3099   0.490   1.720   2.310
  218DMF     H2 3100   0.345   1.645   2.382
  218DMF     H3 3101   0.449   1.550   2.273
  218DMF     H4 3102   0.667   1.453   2.367
  218DMF     H5 3103   0.719   1.505   2.530
  218DMF     H6 3104   0.726   1.619   2.392
  218DMF     H7 3105   0.553   1.549   2.672
  219DMF     C1 3106   0.885   0.971   2.432
  219DMF     N1 3107   0.865   1.097   2.507
  219DMF     C2 3108   0.743   1.107   2.588
  219DMF     C3 3109   0.934   1.215   2.474
  219DMF     O1 3110   1.002   1.226   2.373
  219DMF     H1 3111   0.919   0.893   2.501
  219DMF     H2 3112   0.960   0.983   2.354
  219DMF     H3 3113   0.790   0.939   2.386
  219DMF     H4 3114   0.662   1.053   2.538
  219DMF     H5 3115   0.714   1.212   2.600
  219DMF     H6 3116   0.761   1.062   2.686
  219DMF     H7 3117   0.915   1.299   2.544
  220DMF     C1 3118   2.535   2.634   2.771
  220DMF     N1 3119   2.555   2.526   2.675
  220DMF     C2 3120   2.458   2.510   2.564
  220DMF     C3 3121   2.666   2.442   2.685
  220DMF     O1 3122   2.752   2.456   2.769
  220DMF     H1 3123   2.542   2.731   2.720
  220DMF     H2 3124   2.611   2.632   2.850
  220DMF     H3 3125   2.437   2.625   2.819
  220DMF     H4 3126   2.357   2.496   2.605
  220DMF     H5 3127   2.484   2.423   2.503
  220DMF     H6 3128   2.460   2.600   2.502
  220DMF     H7 3129   2.667   2.362   2.609
  221DMF     C1 3130   1.642   0.312   2.731
  221DMF     N1 3131   1.664   0.220   2.620
  221DMF     C2 3132   1.786   0.139   2.624
  221DMF     C3 3133   1.565   0.198   2.522
  221DMF     O1 3134   1.462   0.263   2.518
  221DMF     H1 3135   1.653   0.255   2.823
  221DMF     H2 3136   1.540   0.354   2.730
  221DMF     H3 3137   1.716   0.393   2.728
  221DMF     H4 3138   1.874   0.205   2.612
  221DMF     H5 3139   1.785   0.065   2.543
  221DMF     H6 3140   1.793   0.088   2.720
  221DMF     H7 3141   1.590   0.117   2.451
  222DMF     C1 3142   0.536   2.037   3.288
  222DMF     N1 3143   0.471   1.908   3.270
  222DMF     C2 3144   0.327   1.910   3.241
  222DMF     C3 3145   0.544   1.789   3.274
  222DMF     O1 3146   0.665   1.787   3.284
  222DMF     H1 3147   0.534   2.091   3.193
  222DMF     H2 3148   0.640   2.022   3.322
  222DMF     H3 3149   0.484   2.094   3.365
  222DMF     H4 3150   0.274   1.960   3.323
  222DMF     H5 3151   0.289   1.808   3.228
  222DMF     H6 3152   0.309   1.967   3.148
  222DMF     H7 3153   0.481   1.698   3.269
  223DMF     C1 3154   1.758   1.112   3.636
  223DMF     N1 3155   1.719   1.253   3.648
  223DMF     C2 3156   1.582   1.283   3.690
  223DMF     C3 3157   1.814   1.355   3.637
  223DMF     O1 3158   1.927   1.331   3.600
  223DMF     H1 3159   1.717   1.056   3.721
  223DMF     H2 3160   1.867   1.103   3.637
  223DMF     H3 3161   1.719   1.071   3.542
  223DMF     H4 3162   1.514   1.258   3.608
  223DMF     H5 3163   1.573   1.389   3.717
  223DMF     H6 3164   1.556   1.221   3.777
  223DMF     H7 3165   1.777   1.456   3.663
  224DMF     C1 3166   1.665   0.426   3.023
  224DMF     N1 3167   1.753   0.309   3.044
  224DMF     C2 3168   1.898   0.327   3.031
  224DMF     C3 3169   1.703   0.181   3.069
  224DMF     O1 3170   1.585   0.155   3.064
  224DMF     H1 3171   1.658   0.488   3.113
  224DMF     H2 3172   1.563   0.394   2.996
  224DMF     H3 3173   1.705   0.488   2.942
  224DMF     H4 3174   1.922   0.381   2.938
  224DMF     H5 3175   1.949   0.230   3.030
  224DMF     H6 3176   1.934   0.385   3.118
  224DMF     H7 3177   1.782   0.106   3.091
  225DMF     C1 3178   2.041   0.941   3.489
  225DMF     N1 3179   2.004   0.827   3.575
  225DMF     C2 3180   1.941   0.853   3.705
  225DMF     C3 3181   2.039   0.696   3.543
  225DMF     O1 3182   2.094   0.664   3.440
  225DMF     H1 3183   1.952   0.998   3.459
  225DMF     H2 3184   2.093   0.908   3.399
  225DMF     H3 3185   2.107   1.008   3.546
  225DMF     H4 3186   1.980   0.946   3.748
  225DMF     H5 3187   1.960   0.771   3.774
  225DMF     H6 3188   1.832   0.861   3.691
  225DMF     H7 3189   2.010   0.624   3.622
  226DMF     C1 3190   1.830   3.055   3.662
  226DMF     N1 3191   1.874   3.137   3.548
  226DMF     C2 3192   1.911   3.276   3.573
  226DMF     C3 3193   1.861   3.095   3.415
  226DMF     O1 3194   1.830   2.982   3.384
  226DMF     H1 3195   1.913   3.044   3.734
  226DMF     H2 3196   1.797   2.956   3.629
  226DMF     H3 3197   1.747   3.105   3.713
  226DMF     H4 3198   1.819   3.335   3.581
  226DMF     H5 3199   1.973   3.311   3.491
  226DMF     H6 3200   1.968   3.285   3.667
  226DMF     H7 3201   1.886   3.174   3.341
  227DMF     C1 3202   2.249   0.177   3.059
  227DMF     N1 3203   2.372   0.245   3.100
  227DMF     C2 3204   2.501   0.178   3.074
  227DMF     C3 3205   2.368   0.365   3.175
  227DMF     O1 3206   2.265   0.423   3.205
  227DMF     H1 3207   2.262   0.134   2.959
  227DMF     H2 3208   2.165   0.248   3.057
  227DMF     H3 3209   2.226   0.097   3.130
  227DMF     H4 3210   2.492   0.071   3.099
  227DMF     H5 3211   2.581   0.223   3.133
  227DMF     H6 3212   2.527   0.187   2.967
  227DMF     H7 3213   2.467   0.398   3.210
  228DMF     C1 3214   3.018   2.711   2.812
  228DMF     N1 3215   3.068   2.691   2.948
  228DMF     C2 3216   2.969   2.701   3.056
  228DMF     C3 3217   3.202   2.660   2.975
  228DMF     O1 3218   3.284   2.637   2.888
  228DMF     H1 3219   2.930   2.647   2.798
  228DMF     H2 3220   3.094   2.687   2.736
  228DMF     H3 3221   2.987   2.816   2.799
  228DMF     H4 3222   2.921   2.799   3.053
  228DMF     H5 3223   3.017   2.685   3.153
  228DMF     H6 3224   2.893   2.624   3.040
  228DMF     H7 3225   3.226   2.658   3.083
  229DMF     C1 3226   2.213   1.226   3.440
  229DMF     N1 3227   2.324   1.275   3.522
  229DMF     C2 3228   2.452   1.293   3.456
  229DMF     C3 3229   2.308   1.306   3.659
  229DMF     O1 3230   2.205   1.282   3.719
  229DMF     H1 3231   2.197   1.298   3.359
  229DMF     H2 3232   2.121   1.216   3.498
  229DMF     H3 3233   2.240   1.128   3.397
  229DMF     H4 3234   2.507   1.198   3.451
  229DMF     H5 3235   2.512   1.367   3.512
  229DMF     H6 3236   2.436   1.330   3.354
  229DMF     H7 3237   2.398   1.352   3.704
  230DMF     C1 3238   2.348   2.890   2.600
  230DMF     N1 3239   2.334   2.998   2.500
  230DMF     C2 3240   2.332   3.138   2.548
  230DMF     C3 3241   2.318   2.969   2.363
  230DMF     O1 3242   2.315   2.856   2.319
  230DMF     H1 3243   2.436   2.910   2.662
  230DMF     H2 3244   2.359   2.792   2.552
  230DMF     H3 3245   2.258   2.887   2.663
  230DMF     H4 3246   2.274   3.144   2.641
  230DMF     H5 3247   2.285   3.204   2.474
  230DMF     H6 3248   2.434   3.172   2.568
  230DMF     H7 3249   2.305   3.059   2.301
  231DMF     C1 3250   3.202   2.894   2.437
  231DMF     N1 3251   3.114   3.005   2.392
  231DMF     C2 3252   2.972   2.976   2.367
  231DMF     C3 3253   3.165   3.134   2.370
  231DMF     O1 3254   3.282   3.164   2.386
  231DMF     H1 3255   3.156   2.842   2.522
  231DMF     H2 3256   3.300   2.930   2.468
  231DMF     H3 3257   3.215   2.822   2.354
  231DMF     H4 3258   2.963   2.904   2.285
  231DMF     H5 3259   2.919   3.068   2.340
  231DMF     H6 3260   2.927   2.934   2.458
  231DMF     H7 3261   3.088   3.206   2.337
  232DMF     C1 3262   0.796   1.616   3.543
  232DMF     N1 3263   0.657   1.659   3.569
  232DMF     C2 3264   0.637   1.791   3.629
  232DMF     C3 3265   0.547   1.589   3.515
  232DMF     O1 3266   0.554   1.485   3.453
  232DMF     H1 3267   0.838   1.673   3.459
  232DMF     H2 3268   0.800   1.509   3.518
  232DMF     H3 3269   0.858   1.633   3.632
  232DMF     H4 3270   0.688   1.797   3.726
  232DMF     H5 3271   0.530   1.811   3.645
  232DMF     H6 3272   0.677   1.868   3.562
  232DMF     H7 3273   0.452   1.642   3.533
  233DMF     C1 3274   1.716   1.018   2.491
  233DMF     N1 3275   1.640   0.946   2.388
  233DMF     C2 3276   1.671   0.803   2.368
  233DMF     C3 3277   1.560   1.016   2.295
  233DMF     O1 3278   1.544   1.136   2.299
  233DMF     H1 3279   1.702   0.971   2.589
  233DMF     H2 3280   1.683   1.122   2.498
  233DMF     H3 3281   1.823   1.015   2.465
  233DMF     H4 3282   1.775   0.783   2.396
  233DMF     H5 3283   1.659   0.776   2.262
  233DMF     H6 3284   1.605   0.740   2.429
  233DMF     H7 3285   1.519   0.953   2.214
  234DMF     C1 3286   0.887   3.077   2.962
  234DMF     N1 3287   0.889   3.189   2.865
  234DMF     C2 3288   0.838   3.320   2.910
  234DMF     C3 3289   0.944   3.176   2.737
  234DMF     O1 3290   0.989   3.072   2.693
  234DMF     H1 3291   0.937   3.107   3.055
  234DMF     H2 3292   0.939   2.989   2.923
  234DMF     H3 3293   0.784   3.049   2.986
  234DMF     H4 3294   0.732   3.312   2.934
  234DMF     H5 3295   0.849   3.394   2.829
  234DMF     H6 3296   0.894   3.354   2.998
  234DMF     H7 3297   0.943   3.270   2.679
  235DMF     C1 3298   2.595   0.979   2.736
  235DMF     N1 3299   2.462   1.010   2.680
  235DMF     C2 3300   2.374   1.099   2.756
  235DMF     C3 3301   2.417   0.949   2.564
  235DMF     O1 3302   2.478   0.861   2.507
  235DMF     H1 3303   2.631   1.062   2.799
  235DMF     H2 3304   2.668   0.961   2.656
  235DMF     H3 3305   2.588   0.889   2.799
  235DMF     H4 3306   2.339   1.044   2.844
  235DMF     H5 3307   2.287   1.128   2.695
  235DMF     H6 3308   2.427   1.189   2.788
  235DMF     H7 3309   2.318   0.987   2.531
  236DMF     C1 3310   1.128   0.913   3.669
  236DMF     N1 3311   0.986   0.953   3.656
  236DMF     C2 3312   0.955   1.094   3.628
  236DMF     C3 3313   0.882   0.861   3.674
  236DMF     O1 3314   0.902   0.744   3.697
  236DMF     H1 3315   1.179   0.928   3.573
  236DMF     H2 3316   1.137   0.807   3.697
  236DMF     H3 3317   1.178   0.974   3.745
  236DMF     H4 3318   1.021   1.160   3.686
  236DMF     H5 3319   0.851   1.116   3.654
  236DMF     H6 3320   0.969   1.115   3.521
  236DMF     H7 3321   0.781   0.905   3.664
  237DMF     C1 3322   1.173   1.091   3.335
  237DMF     N1 3323   1.229   0.955   3.336
  237DMF     C2 3324   1.373   0.939   3.363
  237DMF     C3 3325   1.149   0.844   3.309
  237DMF     O1 3326   1.032   0.855   3.276
  237DMF     H1 3327   1.202   1.143   3.427
  237DMF     H2 3328   1.063   1.088   3.330
  237DMF     H3 3329   1.210   1.144   3.247
  237DMF     H4 3330   1.430   1.000   3.292
  237DMF     H5 3331   1.404   0.835   3.351
  237DMF     H6 3332   1.396   0.972   3.465
  237DMF     H7 3333   1.204   0.748   3.314
  238DMF     C1 3334   3.205   1.732   3.580
  238DMF     N1 3335   3.231   1.597   3.524
  238DMF     C2 3336   3.258   1.488   3.619
  238DMF     C3 3337   3.217   1.570   3.387
  238DMF     O1 3338   3.178   1.651   3.304
  238DMF     H1 3339   3.101   1.740   3.613
  238DMF     H2 3340   3.226   1.810   3.505
  238DMF     H3 3341   3.270   1.749   3.667
  238DMF     H4 3342   3.334   1.519   3.692
  238DMF     H5 3343   3.294   1.399   3.566
  238DMF     H6 3344   3.166   1.462   3.673
  238DMF     H7 3345   3.243   1.466   3.361
  239DMF     C1 3346   0.186   1.102   2.430
  239DMF     N1 3347   0.237   1.239   2.451
  239DMF     C2 3348   0.142   1.350   2.455
  239DMF     C3 3349   0.374   1.266   2.455
  239DMF     O1 3350   0.460   1.181   2.468
  239DMF     H1 3351   0.145   1.063   2.524
  239DMF     H2 3352   0.266   1.035   2.395
  239DMF     H3 3353   0.106   1.103   2.354
  239DMF     H4 3354   0.071   1.342   2.373
  239DMF     H5 3355   0.195   1.446   2.448
  239DMF     H6 3356   0.091   1.346   2.552
  239DMF     H7 3357   0.395   1.375   2.449
  240DMF     C1 3358   1.046   2.428   3.101
  240DMF     N1 3359   1.052   2.561   3.164
  240DMF     C2 3360   1.032   2.569   3.306
  240DMF     C3 3361   1.088   2.676   3.092
  240DMF     O1 3362   1.128   2.667   2.979
  240DMF     H1 3363   1.112   2.359   3.155
  240DMF     H2 3364   1.081   2.432   2.997
  240DMF     H3 3365   0.943   2.390   3.104
  240DMF     H4 3366   0.947   2.506   3.333
  240DMF     H5 3367   1.013   2.673   3.337
  240DMF     H6 3368   1.122   2.532   3.357
  240DMF     H7 3369   1.082   2.770   3.149
  241DMF     C1 3370   0.353   3.281   2.928
  241DMF     N1 3371   0.461   3.196   2.980
  241DMF     C2 3372   0.484   3.067   2.913
  241DMF     C3 3373   0.542   3.237   3.088
  241DMF     O1 3374   0.526   3.343   3.146
  241DMF     H1 3375   0.387   3.333   2.838
  241DMF     H2 3376   0.321   3.354   3.004
  241DMF     H3 3377   0.267   3.218   2.901
  241DMF     H4 3378   0.395   3.005   2.920
  241DMF     H5 3379   0.569   3.014   2.958
  241DMF     H6 3380   0.505   3.086   2.807
  241DMF     H7 3381   0.620   3.163   3.115
  242DMF     C1 3382   3.199   3.218   3.024
  242DMF     N1 3383   3.174   3.102   2.936
  242DMF     C2 3384   3.077   3.118   2.827
  242DMF     C3 3385   3.223   2.974   2.968
  242DMF     O1 3386   3.275   2.945   3.074
  242DMF     H1 3387   3.222   3.306   2.963
  242DMF     H2 3388   3.285   3.198   3.089
  242DMF     H3 3389   3.110   3.238   3.085
  242DMF     H4 3390   2.976   3.122   2.871
  242DMF     H5 3391   3.082   3.034   2.758
  242DMF     H6 3392   3.096   3.211   2.773
  242DMF     H7 3393   3.206   2.902   2.885
  243DMF     C1 3394   0.187   3.266   3.317
  243DMF     N1 3395   0.257   3.145   3.271
  243DMF     C2 3396   0.375   3.102   3.346
  243DMF     C3 3397   0.220   3.081   3.151
  243DMF     O1 3398   0.126   3.118   3.083
  243DMF     H1 3399   0.149   3.249   3.419
  243DMF     H2 3400   0.103   3.290   3.251
  243DMF     H3 3401   0.257   3.350   3.317
  243DMF     H4 3402   0.442   3.188   3.359
  243DMF     H5 3403   0.430   3.024   3.292
  243DMF     H6 3404   0.345   3.064   3.444
  243DMF     H7 3405   0.286   2.997   3.124
  244DMF     C1 3406   2.208   1.949   3.440
  244DMF     N1 3407   2.268   2.022   3.555
  244DMF     C2 3408   2.202   2.015   3.685
  244DMF     C3 3409   2.386   2.095   3.540
  244DMF     O1 3410   2.437   2.123   3.434
  244DMF     H1 3411   2.141   1.869   3.476
  244DMF     H2 3412   2.287   1.903   3.380
  244DMF     H3 3413   2.150   2.017   3.377
  244DMF     H4 3414   2.094   2.031   3.673
  244DMF     H5 3415   2.242   2.092   3.752
  244DMF     H6 3416   2.216   1.916   3.731
  244DMF     H7 3417   2.427   2.129   3.637
  245DMF     C1 3418   0.242   0.588   2.982
  245DMF     N1 3419   0.168   0.707   2.936
  245DMF     C2 3420   0.152   0.722   2.790
  245DMF     C3 3421   0.116   0.801   3.026
  245DMF     O1 3422   0.137   0.796   3.146
  245DMF     H1 3423   0.179   0.499   2.969
  245DMF     H2 3424   0.270   0.597   3.087
  245DMF     H3 3425   0.332   0.576   2.921
  245DMF     H4 3426   0.250   0.722   2.742
  245DMF     H5 3427   0.098   0.815   2.766
  245DMF     H6 3428   0.094   0.637   2.750
  245DMF     H7 3429   0.055   0.880   2.978
  246DMF     C1 3430   2.229   3.106   3.246
  246DMF     N1 3431   2.356   3.169   3.278
  246DMF     C2 3432   2.354   3.311   3.307
  246DMF     C3 3433   2.478   3.099   3.274
  246DMF     O1 3434   2.481   2.983   3.241
  246DMF     H1 3435   2.158   3.120   3.329
  246DMF     H2 3436   2.241   2.998   3.227
  246DMF     H3 3437   2.190   3.155   3.156
  246DMF     H4 3438   2.287   3.363   3.238
  246DMF     H5 3439   2.456   3.349   3.293
  246DMF     H6 3440   2.321   3.327   3.410
  246DMF     H7 3441   2.566   3.159   3.303
  247DMF     C1 3442   0.803   2.201   3.425
  247DMF     N1 3443   0.907   2.156   3.330
  247DMF     C2 3444   0.877   2.047   3.236
  247DMF     C3 3445   1.038   2.202   3.342
  247DMF     O1 3446   1.069   2.289   3.421
  247DMF     H1 3447   0.722   2.252   3.370
  247DMF     H2 3448   0.843   2.271   3.499
  247DMF     H3 3449   0.762   2.115   3.478
  247DMF     H4 3450   0.845   1.958   3.292
  247DMF     H5 3451   0.966   2.020   3.178
  247DMF     H6 3452   0.797   2.077   3.167
  247DMF     H7 3453   1.109   2.153   3.272
  248DMF     C1 3454   1.551   0.611   3.401
  248DMF     N1 3455   1.678   0.683   3.382
  248DMF     C2 3456   1.687   0.822   3.427
  248DMF     C3 3457   1.791   0.618   3.331
  248DMF     O1 3458   1.790   0.499   3.306
  248DMF     H1 3459   1.500   0.649   3.490
  248DMF     H2 3460   1.569   0.503   3.414
  248DMF     H3 3461   1.488   0.626   3.313
  248DMF     H4 3462   1.639   0.888   3.354
  248DMF     H5 3463   1.793   0.850   3.435
  248DMF     H6 3464   1.640   0.833   3.525
  248DMF     H7 3465   1.879   0.684   3.317
  249DMF     C1 3466   1.189   1.532   3.216
  249DMF     N1 3467   1.153   1.416   3.134
  249DMF     C2 3468   1.021   1.361   3.160
  249DMF     C3 3469   1.248   1.340   3.065
  249DMF     O1 3470   1.364   1.371   3.043
  249DMF     H1 3471   1.137   1.620   3.177
  249DMF     H2 3472   1.297   1.545   3.214
  249DMF     H3 3473   1.158   1.516   3.320
  249DMF     H4 3474   1.010   1.355   3.269
  249DMF     H5 3475   1.012   1.261   3.118
  249DMF     H6 3476   0.944   1.427   3.119
  249DMF     H7 3477   1.208   1.241   3.035
  250DMF     C1 3478   2.420   2.730   3.109
  250DMF     N1 3479   2.439   2.828   3.000
  250DMF     C2 3480   2.320   2.889   2.941
  250DMF     C3 3481   2.567   2.876   2.967
  250DMF     O1 3482   2.671   2.829   3.010
  250DMF     H1 3483   2.347   2.769   3.181
  250DMF     H2 3484   2.514   2.713   3.163
  250DMF     H3 3485   2.384   2.636   3.066
  250DMF     H4 3486   2.264   2.813   2.886
  250DMF     H5 3487   2.348   2.970   2.872
  250DMF     H6 3488   2.257   2.931   3.020
  250DMF     H7 3489   2.565   2.958   2.894
  251DMF     C1 3490   0.962   1.934   3.584
  251DMF     N1 3491   1.100   1.939   3.531
  251DMF     C2 3492   1.203   1.998   3.617
  251DMF     C3 3493   1.135   1.878   3.409
  251DMF     O1 3494   1.055   1.821   3.337
  251DMF     H1 3495   0.957   1.859   3.664
  251DMF     H2 3496   0.891   1.907   3.505
  251DMF     H3 3497   0.935   2.032   3.624
  251DMF     H4 3498   1.177   2.101   3.642
  251DMF     H5 3499   1.300   1.994   3.566
  251DMF     H6 3500   1.211   1.940   3.710
  251DMF     H7 3501   1.242   1.889   3.384
  252DMF     C1 3502   2.230   3.105   3.646
  252DMF     N1 3503   2.229   2.975   3.577
  252DMF     C2 3504   2.112   2.888   3.591
  252DMF     C3 3505   2.345   2.931   3.512
  252DMF     O1 3506   2.453   2.980   3.536
  252DMF     H1 3507   2.133   3.155   3.631
  252DMF     H2 3508   2.307   3.170   3.603
  252DMF     H3 3509   2.249   3.091   3.753
  252DMF     H4 3510   2.082   2.884   3.697
  252DMF     H5 3511   2.134   2.787   3.557
  252DMF     H6 3512   2.028   2.927   3.531
  252DMF     H7 3513   2.327   2.847   3.442
  253DMF     C1 3514   1.841   1.734   3.491
  253DMF     N1 3515   1.934   1.623   3.504
  253DMF     C2 3516   1.947   1.534   3.388
  253DMF     C3 3517   2.026   1.615   3.611
  253DMF     O1 3518   2.028   1.697   3.703
  253DMF     H1 3519   1.883   1.805   3.419
  253DMF     H2 3520   1.825   1.783   3.588
  253DMF     H3 3521   1.745   1.697   3.453
  253DMF     H4 3522   1.853   1.480   3.373
  253DMF     H5 3523   2.027   1.461   3.406
  253DMF     H6 3524   1.971   1.593   3.299
  253DMF     H7 3525   2.096   1.530   3.604
  254DMF     C1 3526   1.680   2.277   3.397
  254DMF     N1 3527   1.623   2.375   3.307
  254DMF     C2 3528   1.557   2.321   3.190
  254DMF     C3 3529   1.664   2.509   3.310
  254DMF     O1 3530   1.740   2.553   3.395
  254DMF     H1 3531   1.609   2.195   3.411
  254DMF     H2 3532   1.705   2.323   3.493
  254DMF     H3 3533   1.770   2.234   3.350
  254DMF     H4 3534   1.614   2.235   3.153
  254DMF     H5 3535   1.557   2.396   3.110
  254DMF     H6 3536   1.454   2.292   3.215
  254DMF     H7 3537   1.625   2.569   3.225
  255DMF     C1 3538   2.721   1.985   3.631
  255DMF     N1 3539   2.724   2.119   3.570
  255DMF     C2 3540   2.704   2.235   3.657
  255DMF     C3 3541   2.767   2.137   3.438
  255DMF     O1 3542   2.810   2.046   3.371
  255DMF     H1 3543   2.809   1.974   3.696
  255DMF     H2 3544   2.728   1.906   3.554
  255DMF     H3 3545   2.629   1.971   3.688
  255DMF     H4 3546   2.607   2.228   3.707
  255DMF     H5 3547   2.707   2.328   3.597
  255DMF     H6 3548   2.784   2.239   3.732
  255DMF     H7 3549   2.763   2.242   3.403
  256DMF     C1 3550   2.238   0.528   2.200
  256DMF     N1 3551   2.257   0.647   2.280
  256DMF     C2 3552   2.146   0.690   2.361
  256DMF     C3 3553   2.364   0.733   2.257
  256DMF     O1 3554   2.451   0.704   2.179
  256DMF     H1 3555   2.201   0.445   2.261
  256DMF     H2 3556   2.331   0.497   2.150
  256DMF     H3 3557   2.158   0.552   2.129
  256DMF     H4 3558   2.052   0.663   2.310
  256DMF     H5 3559   2.152   0.798   2.377
  256DMF     H6 3560   2.149   0.636   2.456
  256DMF     H7 3561   2.357   0.829   2.310
  257DMF     C1 3562   1.880   0.634   2.593
  257DMF     N1 3563   1.862   0.764   2.662
  257DMF     C2 3564   1.747   0.773   2.751
  257DMF     C3 3565   1.943   0.877   2.638
  257DMF     O1 3566   2.032   0.883   2.557
  257DMF     H1 3567   1.919   0.560   2.663
  257DMF     H2 3568   1.948   0.644   2.507
  257DMF     H3 3569   1.784   0.599   2.554
  257DMF     H4 3570   1.657   0.752   2.692
  257DMF     H5 3571   1.739   0.875   2.792
  257DMF     H6 3572   1.758   0.701   2.832
  257DMF     H7 3573   1.914   0.964   2.701
  258DMF     C1 3574   2.866   1.565   3.644
  258DMF     N1 3575   2.846   1.433   3.581
  258DMF     C2 3576   2.927   1.400   3.463
  258DMF     C3 3577   2.745   1.344   3.626
  258DMF     O1 3578   2.666   1.376   3.713
  258DMF     H1 3579   2.968   1.572   3.684
  258DMF     H2 3580   2.796   1.581   3.727
  258DMF     H3 3581   2.851   1.644   3.570
  258DMF     H4 3582   2.913   1.479   3.388
  258DMF     H5 3583   2.895   1.304   3.421
  258DMF     H6 3584   3.032   1.395   3.491
  258DMF     H7 3585   2.743   1.249   3.571
  259DMF     C1 3586   0.720   2.795   3.405
  259DMF     N1 3587   0.728   2.684   3.308
  259DMF     C2 3588   0.673   2.554   3.350
  259DMF     C3 3589   0.775   2.705   3.177
  259DMF     O1 3590   0.812   2.814   3.139
  259DMF     H1 3591   0.615   2.811   3.433
  259DMF     H2 3592   0.760   2.887   3.361
  259DMF     H3 3593   0.778   2.770   3.494
  259DMF     H4 3594   0.706   2.529   3.451
  259DMF     H5 3595   0.708   2.475   3.282
  259DMF     H6 3596   0.563   2.559   3.348
  259DMF     H7 3597   0.773   2.614   3.113
  260DMF     C1 3598   1.640   0.880   3.076
  260DMF     N1 3599   1.713   1.007   3.063
  260DMF     C2 3600   1.652   1.116   2.984
  260DMF     C3 3601   1.831   1.029   3.136
  260DMF     O1 3602   1.868   0.950   3.221
  260DMF     H1 3603   1.549   0.895   3.135
  260DMF     H2 3604   1.702   0.803   3.123
  260DMF     H3 3605   1.613   0.845   2.976
  260DMF     H4 3606   1.624   1.079   2.885
  260DMF     H5 3607   1.721   1.200   2.974
  260DMF     H6 3608   1.562   1.151   3.036
  260DMF     H7 3609   1.883   1.123   3.111
  261DMF     C1 3610   1.357   2.261   2.343
  261DMF     N1 3611   1.501   2.285   2.318
  261DMF     C2 3612   1.575   2.196   2.229
  261DMF     C3 3613   1.569   2.385   2.389
  261DMF     O1 3614   1.512   2.456   2.469
  261DMF     H1 3615   1.300   2.272   2.250
  261DMF     H2 3616   1.317   2.329   2.418
  261DMF     H3 3617   1.344   2.159   2.382
  261DMF     H4 3618   1.613   2.110   2.286
  261DMF     H5 3619   1.659   2.249   2.183
  261DMF     H6 3620   1.508   2.160   2.150
  261DMF     H7 3621   1.676   2.392   2.363
  262DMF     C1 3622   2.191   0.199   3.689
  262DMF     N1 3623   2.274   0.321   3.702
  262DMF     C2 3624   2.214   0.450   3.664
  262DMF     C3 3625   2.411   0.313   3.733
  262DMF     O1 3626   2.467   0.206   3.754
  262DMF     H1 3627   2.110   0.200   3.763
  262DMF     H2 3628   2.252   0.109   3.703
  262DMF     H3 3629   2.148   0.196   3.588
  262DMF     H4 3630   2.187   0.448   3.558
  262DMF     H5 3631   2.284   0.533   3.682
  262DMF     H6 3632   2.123   0.468   3.722
  262DMF     H7 3633   2.462   0.411   3.735
  263DMF     C1 3634   0.539   0.395   2.916
  263DMF     N1 3635   0.636   0.507   2.913
  263DMF     C2 3636   0.589   0.640   2.957
  263DMF     C3 3637   0.770   0.485   2.881
  263DMF     O1 3638   0.816   0.378   2.846
  263DMF     H1 3639   0.492   0.390   3.014
  263DMF     H2 3640   0.589   0.299   2.896
  263DMF     H3 3641   0.462   0.411   2.840
  263DMF     H4 3642   0.523   0.684   2.881
  263DMF     H5 3643   0.674   0.707   2.974
  263DMF     H6 3644   0.533   0.631   3.051
  263DMF     H7 3645   0.832   0.576   2.894
  264DMF     C1 3646   1.628   2.589   2.722
  264DMF     N1 3647   1.771   2.590   2.677
  264DMF     C2 3648   1.840   2.720   2.677
  264DMF     C3 3649   1.829   2.481   2.609
  264DMF     O1 3650   1.777   2.372   2.594
  264DMF     H1 3651   1.621   2.616   2.828
  264DMF     H2 3652   1.582   2.491   2.707
  264DMF     H3 3653   1.568   2.664   2.669
  264DMF     H4 3654   1.767   2.800   2.659
  264DMF     H5 3655   1.915   2.723   2.597
  264DMF     H6 3656   1.890   2.737   2.774
  264DMF     H7 3657   1.929   2.505   2.570
  265DMF     C1 3658   2.978   0.401   2.673
  265DMF     N1 3659   2.980   0.299   2.779
  265DMF     C2 3660   3.110   0.243   2.819
  265DMF     C3 3661   2.860   0.254   2.839
  265DMF     O1 3662   2.751   0.283   2.794
  265DMF     H1 3663   3.024   0.494   2.710
  265DMF     H2 3664   2.875   0.427   2.644
  265DMF     H3 3665   3.033   0.366   2.585
  265DMF     H4 3666   3.166   0.216   2.729
  265DMF     H5 3667   3.095   0.153   2.880
  265DMF     H6 3668   3.166   0.317   2.876
  265DMF     H7 3669   2.876   0.189   2.927
  266DMF     C1 3670   1.192   2.857   2.337
  266DMF     N1 3671   1.185   2.711   2.312
  266DMF     C2 3672   1.282   2.625   2.380
  266DMF     C3 3673   1.077   2.654   2.244
  266DMF     O1 3674   0.989   2.718   2.190
  266DMF     H1 3675   1.199   2.875   2.445
  266DMF     H2 3676   1.104   2.908   2.298
  266DMF     H3 3677   1.281   2.898   2.289
  266DMF     H4 3678   1.354   2.585   2.307
  266DMF     H5 3679   1.231   2.542   2.430
  266DMF     H6 3680   1.337   2.682   2.455
  266DMF     H7 3681   1.080   2.543   2.245
  267DMF     C1 3682   1.914   3.027   2.821
  267DMF     N1 3683   1.881   2.999   2.961
  267DMF     C2 3684   1.959   3.066   3.063
  267DMF     C3 3685   1.776   2.912   2.995
  267DMF     O1 3686   1.711   2.855   2.910
  267DMF     H1 3687   1.927   3.135   2.808
  267DMF     H2 3688   1.835   2.993   2.753
  267DMF     H3 3689   2.008   2.976   2.797
  267DMF     H4 3690   2.063   3.032   3.051
  267DMF     H5 3691   1.923   3.039   3.163
  267DMF     H6 3692   1.954   3.175   3.050
  267DMF     H7 3693   1.760   2.901   3.104
  268DMF     C1 3694   1.953   3.274   2.554
  268DMF     N1 3695   2.004   3.168   2.465
  268DMF     C2 3696   2.017   3.033   2.521
  268DMF     C3 3697   2.030   3.192   2.329
  268DMF     O1 3698   2.017   3.301   2.276
  268DMF     H1 3699   1.849   3.252   2.582
  268DMF     H2 3700   1.956   3.372   2.505
  268DMF     H3 3701   2.014   3.279   2.645
  268DMF     H4 3702   2.082   3.036   2.610
  268DMF     H5 3703   2.063   2.965   2.448
  268DMF     H6 3704   1.919   2.994   2.549
  268DMF     H7 3705   2.063   3.102   2.275
  269DMF     C1 3706   1.044   2.797   3.607
  269DMF     N1 3707   1.077   2.654   3.604
  269DMF     C2 3708   0.967   2.557   3.611
  269DMF     C3 3709   1.211   2.612   3.596
  269DMF     O1 3710   1.304   2.689   3.585
  269DMF     H1 3711   1.017   2.831   3.507
  269DMF     H2 3712   1.130   2.855   3.644
  269DMF     H3 3713   0.959   2.814   3.675
  269DMF     H4 3714   0.905   2.574   3.700
  269DMF     H5 3715   1.006   2.454   3.612
  269DMF     H6 3716   0.900   2.569   3.524
  269DMF     H7 3717   1.222   2.502   3.598
  270DMF     C1 3718   1.104   2.994   3.275
  270DMF     N1 3719   1.128   3.111   3.361
  270DMF     C2 3720   1.184   3.090   3.497
  270DMF     C3 3721   1.095   3.240   3.318
  270DMF     O1 3722   1.023   3.261   3.222
  270DMF     H1 3723   1.179   2.916   3.296
  270DMF     H2 3724   1.114   3.023   3.169
  270DMF     H3 3725   1.004   2.954   3.292
  270DMF     H4 3726   1.102   3.064   3.566
  270DMF     H5 3727   1.232   3.181   3.533
  270DMF     H6 3728   1.256   3.008   3.496
  270DMF     H7 3729   1.135   3.319   3.384
  271DMF     C1 3730   1.497   2.422   3.646
  271DMF     N1 3731   1.454   2.286   3.605
  271DMF     C2 3732   1.344   2.278   3.509
  271DMF     C3 3733   1.520   2.170   3.647
  271DMF     O1 3734   1.615   2.169   3.722
  271DMF     H1 3735   1.498   2.489   3.559
  271DMF     H2 3736   1.598   2.420   3.688
  271DMF     H3 3737   1.427   2.461   3.720
  271DMF     H4 3738   1.251   2.287   3.567
  271DMF     H5 3739   1.346   2.182   3.456
  271DMF     H6 3740   1.350   2.360   3.437
  271DMF     H7 3741   1.479   2.077   3.602
  272DMF     C1 3742   0.868   0.481   2.314
  272DMF     N1 3743   0.970   0.375   2.333
  272DMF     C2 3744   0.976   0.269   2.233
  272DMF     C3 3745   1.061   0.376   2.440
  272DMF     O1 3746   1.055   0.458   2.529
  272DMF     H1 3747   0.866   0.512   2.209
  272DMF     H2 3748   0.892   0.569   2.375
  272DMF     H3 3749   0.769   0.443   2.342
  272DMF     H4 3750   0.898   0.195   2.252
  272DMF     H5 3751   1.074   0.221   2.233
  272DMF     H6 3752   0.958   0.315   2.135
  272DMF     H7 3753   1.138   0.296   2.435
  273DMF     C1 3754   1.983   1.937   3.103
  273DMF     N1 3755   2.121   1.892   3.087
  273DMF     C2 3756   2.142   1.748   3.076
  273DMF     C3 3757   2.229   1.977   3.114
  273DMF     O1 3758   2.218   2.098   3.127
  273DMF     H1 3759   1.925   1.914   3.012
  273DMF     H2 3760   1.979   2.044   3.123
  273DMF     H3 3761   1.939   1.883   3.188
  273DMF     H4 3762   2.131   1.703   3.176
  273DMF     H5 3763   2.244   1.728   3.039
  273DMF     H6 3764   2.070   1.705   3.006
  273DMF     H7 3765   2.325   1.923   3.122
  274DMF     C1 3766   2.873   0.360   2.206
  274DMF     N1 3767   2.788   0.396   2.319
  274DMF     C2 3768   2.781   0.300   2.429
  274DMF     C3 3769   2.718   0.518   2.320
  274DMF     O1 3770   2.720   0.595   2.225
  274DMF     H1 3771   2.974   0.335   2.240
  274DMF     H2 3772   2.881   0.446   2.137
  274DMF     H3 3773   2.829   0.274   2.153
  274DMF     H4 3774   2.724   0.212   2.397
  274DMF     H5 3775   2.733   0.345   2.517
  274DMF     H6 3776   2.883   0.267   2.455
  274DMF     H7 3777   2.661   0.536   2.413
  275DMF     C1 3778   0.325   2.887   2.614
  275DMF     N1 3779   0.377   2.926   2.481
  275DMF     C2 3780   0.488   2.849   2.424
  275DMF     C3 3781   0.319   3.031   2.408
  275DMF     O1 3782   0.233   3.104   2.453
  275DMF     H1 3783   0.321   2.778   2.621
  275DMF     H2 3784   0.224   2.927   2.630
  275DMF     H3 3785   0.391   2.925   2.693
  275DMF     H4 3786   0.585   2.883   2.464
  275DMF     H5 3787   0.492   2.862   2.315
  275DMF     H6 3788   0.477   2.743   2.449
  275DMF     H7 3789   0.362   3.042   2.306
  276DMF     C1 3790   0.885   0.652   2.641
  276DMF     N1 3791   0.833   0.767   2.714
  276DMF     C2 3792   0.931   0.851   2.785
  276DMF     C3 3793   0.698   0.804   2.706
  276DMF     O1 3794   0.618   0.746   2.636
  276DMF     H1 3795   0.940   0.686   2.552
  276DMF     H2 3796   0.804   0.584   2.611
  276DMF     H3 3797   0.954   0.597   2.706
  276DMF     H4 3798   0.980   0.792   2.863
  276DMF     H5 3799   0.881   0.937   2.831
  276DMF     H6 3800   1.006   0.887   2.715
  276DMF     H7 3801   0.673   0.892   2.769
  277DMF     C1 3802   2.868   1.206   2.539
  277DMF     N1 3803   2.811   1.341   2.556
  277DMF     C2 3804   2.892   1.457   2.522
  277DMF     C3 3805   2.691   1.361   2.622
  277DMF     O1 3806   2.622   1.270   2.661
  277DMF     H1 3807   2.909   1.194   2.438
  277DMF     H2 3808   2.792   1.128   2.556
  277DMF     H3 3809   2.950   1.192   2.611
  277DMF     H4 3810   2.954   1.485   2.609
  277DMF     H5 3811   2.828   1.542   2.494
  277DMF     H6 3812   2.957   1.432   2.437
  277DMF     H7 3813   2.666   1.468   2.634
  278DMF     C1 3814   0.659   3.283   3.474
  278DMF     N1 3815   0.706   3.152   3.523
  278DMF     C2 3816   0.842   3.113   3.485
  278DMF     C3 3817   0.629   3.071   3.608
  278DMF     O1 3818   0.513   3.096   3.636
  278DMF     H1 3819   0.727   3.362   3.510
  278DMF     H2 3820   0.558   3.305   3.510
  278DMF     H3 3821   0.660   3.284   3.365
  278DMF     H4 3822   0.847   3.105   3.375
  278DMF     H5 3823   0.869   3.017   3.530
  278DMF     H6 3824   0.912   3.190   3.519
  278DMF     H7 3825   0.683   2.982   3.643
  279DMF     C1 3826   2.536   0.115   2.657
  279DMF     N1 3827   2.422   0.199   2.693
  279DMF     C2 3828   2.448   0.339   2.730
  279DMF     C3 3829   2.293   0.143   2.708
  279DMF     O1 3830   2.271   0.025   2.688
  279DMF     H1 3831   2.610   0.174   2.602
  279DMF     H2 3832   2.504   0.031   2.593
  279DMF     H3 3833   2.583   0.076   2.748
  279DMF     H4 3834   2.456   0.346   2.839
  279DMF     H5 3835   2.365   0.404   2.697
  279DMF     H6 3836   2.540   0.375   2.684
  279DMF     H7 3837   2.217   0.217   2.740
  280DMF     C1 3838   1.434   2.736   3.037
  280DMF     N1 3839   1.394   2.624   3.124
  280DMF     C2 3840   1.377   2.653   3.268
  280DMF     C3 3841   1.351   2.502   3.070
  280DMF     O1 3842   1.370   2.467   2.955
  280DMF     H1 3843   1.360   2.816   3.047
  280DMF     H2 3844   1.437   2.705   2.932
  280DMF     H3 3845   1.532   2.773   3.068
  280DMF     H4 3846   1.467   2.701   3.307
  280DMF     H5 3847   1.360   2.560   3.325
  280DMF     H6 3848   1.292   2.721   3.284
  280DMF     H7 3849   1.305   2.437   3.146
  281DMF     C1 3850   2.200   0.629   2.695
  281DMF     N1 3851   2.260   0.639   2.825
  281DMF     C2 3852   2.325   0.765   2.858
  281DMF     C3 3853   2.251   0.535   2.917
  281DMF     O1 3854   2.190   0.432   2.892
  281DMF     H1 3855   2.123   0.707   2.688
  281DMF     H2 3856   2.152   0.532   2.679
  281DMF     H3 3857   2.277   0.648   2.619
  281DMF     H4 3858   2.428   0.762   2.821
  281DMF     H5 3859   2.322   0.782   2.966
  281DMF     H6 3860   2.272   0.847   2.808
  281DMF     H7 3861   2.304   0.557   3.012
  282DMF     C1 3862   2.924   2.359   3.127
  282DMF     N1 3863   3.067   2.351   3.092
  282DMF     C2 3864   3.103   2.283   2.967
  282DMF     C3 3865   3.164   2.416   3.171
  282DMF     O1 3866   3.135   2.487   3.266
  282DMF     H1 3867   2.865   2.363   3.035
  282DMF     H2 3868   2.904   2.448   3.188
  282DMF     H3 3869   2.895   2.270   3.184
  282DMF     H4 3870   3.063   2.181   2.968
  282DMF     H5 3871   3.212   2.278   2.956
  282DMF     H6 3872   3.061   2.338   2.882
  282DMF     H7 3873   3.267   2.400   3.136
  283DMF     C1 3874   3.213   1.088   2.470
  283DMF     N1 3875   3.197   1.209   2.388
  283DMF     C2 3876   3.200   1.339   2.455
  283DMF     C3 3877   3.180   1.201   2.249
  283DMF     O1 3878   3.185   1.094   2.191
  283DMF     H1 3879   3.304   1.096   2.531
  283DMF     H2 3880   3.220   0.998   2.408
  283DMF     H3 3881   3.125   1.077   2.536
  283DMF     H4 3882   3.120   1.343   2.530
  283DMF     H5 3883   3.190   1.421   2.383
  283DMF     H6 3884   3.295   1.351   2.509
  283DMF     H7 3885   3.163   1.298   2.199
  284DMF     C1 3886   0.954   0.112   3.405
  284DMF     N1 3887   0.878   0.182   3.511
  284DMF     C2 3888   0.784   0.285   3.467
  284DMF     C3 3889   0.896   0.153   3.647
  284DMF     O1 3890   0.972   0.067   3.687
  284DMF     H1 3891   0.885   0.060   3.337
  284DMF     H2 3892   1.021   0.038   3.450
  284DMF     H3 3893   1.013   0.184   3.348
  284DMF     H4 3894   0.840   0.360   3.410
  284DMF     H5 3895   0.736   0.333   3.553
  284DMF     H6 3896   0.707   0.240   3.403
  284DMF     H7 3897   0.834   0.216   3.713
  285DMF     C1 3898   1.721   2.371   2.925
  285DMF     N1 3899   1.803   2.441   3.026
  285DMF     C2 3900   1.808   2.587   3.027
  285DMF     C3 3901   1.875   2.368   3.121
  285DMF     O1 3902   1.871   2.247   3.126
  285DMF     H1 3903   1.623   2.420   2.915
  285DMF     H2 3904   1.704   2.266   2.952
  285DMF     H3 3905   1.773   2.373   2.829
  285DMF     H4 3906   1.874   2.623   2.947
  285DMF     H5 3907   1.844   2.625   3.123
  285DMF     H6 3908   1.706   2.627   3.012
  285DMF     H7 3909   1.930   2.432   3.193
  286DMF     C1 3910   0.148   1.909   3.589
  286DMF     N1 3911   0.157   1.769   3.543
  286DMF     C2 3912   0.211   1.670   3.637
  286DMF     C3 3913   0.108   1.729   3.417
  286DMF     O1 3914   0.059   1.806   3.336
  286DMF     H1 3915   0.076   1.917   3.671
  286DMF     H2 3916   0.117   1.976   3.508
  286DMF     H3 3917   0.246   1.942   3.626
  286DMF     H4 3918   0.302   1.709   3.683
  286DMF     H5 3919   0.235   1.576   3.585
  286DMF     H6 3920   0.137   1.649   3.715
  286DMF     H7 3921   0.121   1.621   3.399
  287DMF     C1 3922   0.777   1.160   2.950
  287DMF     N1 3923   0.633   1.174   2.954
  287DMF     C2 3924   0.583   1.310   2.937
  287DMF     C3 3925   0.548   1.066   2.982
  287DMF     O1 3926   0.591   0.952   2.990
  287DMF     H1 3927   0.811   1.171   2.847
  287DMF     H2 3928   0.809   1.064   2.991
  287DMF     H3 3929   0.823   1.241   3.009
  287DMF     H4 3930   0.639   1.376   3.005
  287DMF     H5 3931   0.476   1.316   2.960
  287DMF     H6 3932   0.601   1.343   2.834
  287DMF     H7 3933   0.442   1.093   2.992
  288DMF     C1 3934   0.709   2.964   2.675
  288DMF     N1 3935   0.732   3.050   2.558
  288DMF     C2 3936   0.667   3.182   2.556
  288DMF     C3 3937   0.818   3.009   2.455
  288DMF     O1 3938   0.856   2.894   2.443
  288DMF     H1 3939   0.720   3.021   2.768
  288DMF     H2 3940   0.781   2.881   2.678
  288DMF     H3 3941   0.606   2.925   2.672
  288DMF     H4 3942   0.560   3.168   2.536
  288DMF     H5 3943   0.712   3.246   2.479
  288DMF     H6 3944   0.678   3.230   2.654
  288DMF     H7 3945   0.843   3.089   2.383
  289DMF     C1 3946   1.897   0.132   3.499
  289DMF     N1 3947   1.927   0.272   3.479
  289DMF     C2 3948   1.874   0.368   3.577
  289DMF     C3 3949   2.003   0.311   3.367
  289DMF     O1 3950   2.036   0.230   3.283
  289DMF     H1 3951   1.897   0.108   3.606
  289DMF     H2 3952   1.974   0.071   3.449
  289DMF     H3 3953   1.799   0.107   3.455
  289DMF     H4 3954   1.764   0.359   3.581
  289DMF     H5 3955   1.899   0.471   3.547
  289DMF     H6 3956   1.915   0.347   3.676
  289DMF     H7 3957   2.028   0.419   3.364
  290DMF     C1 3958   0.840   0.639   3.190
  290DMF     N1 3959   0.775   0.604   3.317
  290DMF     C2 3960   0.838   0.650   3.439
  290DMF     C3 3961   0.659   0.525   3.323
  290DMF     O1 3962   0.608   0.474   3.225
  290DMF     H1 3963   0.814   0.741   3.161
  290DMF     H2 3964   0.809   0.568   3.112
  290DMF     H3 3965   0.949   0.631   3.202
  290DMF     H4 3966   0.936   0.603   3.451
  290DMF     H5 3967   0.776   0.624   3.526
  290DMF     H6 3968   0.852   0.759   3.435
  290DMF     H7 3969   0.621   0.512   3.425
  291DMF     C1 3970   0.145   1.472   3.157
  291DMF     N1 3971   0.284   1.426   3.150
  291DMF     C2 3972   0.309   1.282   3.167
  291DMF     C3 3973   0.387   1.513   3.112
  291DMF     O1 3974   0.367   1.626   3.074
  291DMF     H1 3975   0.089   1.424   3.076
  291DMF     H2 3976   0.138   1.581   3.147
  291DMF     H3 3977   0.101   1.442   3.253
  291DMF     H4 3978   0.259   1.245   3.257
  291DMF     H5 3979   0.417   1.262   3.175
  291DMF     H6 3980   0.269   1.228   3.080
  291DMF     H7 3981   0.487   1.468   3.120
  292DMF     C1 3982   2.515   1.366   3.058
  292DMF     N1 3983   2.663   1.374   3.062
  292DMF     C2 3984   2.737   1.381   2.936
  292DMF     C3 3985   2.732   1.386   3.183
  292DMF     O1 3986   2.676   1.382   3.291
  292DMF     H1 3987   2.470   1.466   3.060
  292DMF     H2 3988   2.477   1.310   3.144
  292DMF     H3 3989   2.482   1.317   2.965
  292DMF     H4 3990   2.721   1.289   2.879
  292DMF     H5 3991   2.845   1.393   2.954
  292DMF     H6 3992   2.703   1.466   2.876
  292DMF     H7 3993   2.840   1.400   3.171
  293DMF     C1 3994   0.149   2.389   3.556
  293DMF     N1 3995   0.296   2.389   3.564
  293DMF     C2 3996   0.362   2.517   3.595
  293DMF     C3 3997   0.370   2.271   3.551
  293DMF     O1 3998   0.322   2.163   3.525
  293DMF     H1 3999   0.108   2.415   3.654
  293DMF     H2 4000   0.110   2.290   3.527
  293DMF     H3 4001   0.115   2.463   3.482
  293DMF     H4 4002   0.324   2.595   3.527
  293DMF     H5 4003   0.470   2.508   3.583
  293DMF     H6 4004   0.339   2.545   3.699
  293DMF     H7 4005   0.479   2.287   3.565
  294DMF     C1 4006   0.510   0.780   3.463
  294DMF     N1 4007   0.371   0.742   3.438
  294DMF     C2 4008   0.340   0.598   3.426
  294DMF     C3 4009   0.272   0.839   3.413
  294DMF     O1 4010   0.295   0.959   3.416
  294DMF     H1 4011   0.554   0.716   3.540
  294DMF     H2 4012   0.516   0.885   3.496
  294DMF     H3 4013   0.566   0.769   3.370
  294DMF     H4 4014   0.373   0.562   3.328
  294DMF     H5 4015   0.232   0.581   3.436
  294DMF     H6 4016   0.392   0.543   3.504
  294DMF     H7 4017   0.172   0.796   3.392
  295DMF     C1 4018   2.983   1.079   2.855
  295DMF     N1 4019   3.120   1.121   2.817
  295DMF     C2 4020   3.227   1.021   2.810
  295DMF     C3 4021   3.146   1.253   2.781
  295DMF     O1 4022   3.062   1.341   2.791
  295DMF     H1 4023   2.929   1.041   2.767
  295DMF     H2 4024   2.927   1.165   2.894
  295DMF     H3 4025   2.987   1.000   2.931
  295DMF     H4 4026   3.214   0.945   2.889
  295DMF     H5 4027   3.324   1.070   2.824
  295DMF     H6 4028   3.225   0.971   2.713
  295DMF     H7 4029   3.250   1.270   2.746
  296DMF     C1 4030   2.786   3.238   3.494
  296DMF     N1 4031   2.690   3.183   3.592
  296DMF     C2 4032   2.572   3.265   3.626
  296DMF     C3 4033   2.712   3.060   3.655
  296DMF     O1 4034   2.817   2.999   3.647
  296DMF     H1 4035   2.733   3.293   3.415
  296DMF     H2 4036   2.842   3.156   3.446
  296DMF     H3 4037   2.856   3.305   3.545
  296DMF     H4 4038   2.604   3.359   3.672
  296DMF     H5 4039   2.508   3.211   3.698
  296DMF     H6 4040   2.514   3.286   3.536
  296DMF     H7 4041   2.627   3.026   3.717
  297DMF     C1 4042   2.322   0.161   2.349
  297DMF     N1 4043   2.328   0.296   2.407
  297DMF     C2 4044   2.450   0.375   2.385
  297DMF     C3 4045   2.224   0.351   2.482
  297DMF     O1 4046   2.119   0.293   2.507
  297DMF     H1 4047   2.325   0.168   2.240
  297DMF     H2 4048   2.230   0.110   2.379
  297DMF     H3 4049   2.408   0.103   2.384
  297DMF     H4 4050   2.529   0.335   2.449
  297DMF     H5 4051   2.433   0.481   2.412
  297DMF     H6 4052   2.480   0.370   2.280
  297DMF     H7 4053   2.246   0.454   2.514
  298DMF     C1 4054   1.225   0.556   2.217
  298DMF     N1 4055   1.204   0.701   2.209
  298DMF     C2 4056   1.069   0.755   2.229
  298DMF     C3 4057   1.313   0.786   2.188
  298DMF     O1 4058   1.427   0.745   2.183
  298DMF     H1 4059   1.221   0.525   2.322
  298DMF     H2 4060   1.322   0.527   2.176
  298DMF     H3 4061   1.146   0.504   2.161
  298DMF     H4 4062   0.997   0.696   2.172
  298DMF     H5 4063   1.064   0.859   2.194
  298DMF     H6 4064   1.044   0.750   2.335
  298DMF     H7 4065   1.285   0.892   2.176
  299DMF     C1 4066   2.605   0.132   3.393
  299DMF     N1 4067   2.525   0.248   3.433
  299DMF     C2 4068   2.597   0.369   3.476
  299DMF     C3 4069   2.385   0.241   3.434
  299DMF     O1 4070   2.324   0.138   3.414
  299DMF     H1 4071   2.698   0.165   3.345
  299DMF     H2 4072   2.549   0.075   3.317
  299DMF     H3 4073   2.625   0.070   3.480
  299DMF     H4 4074   2.644   0.350   3.573
  299DMF     H5 4075   2.528   0.454   3.485
  299DMF     H6 4076   2.674   0.392   3.402
  299DMF     H7 4077   2.337   0.339   3.453
  300DMF     C1 4078   1.313   1.063   2.863
  300DMF     N1 4079   1.215   0.997   2.950
  300DMF     C2 4080   1.257   0.878   3.022
  300DMF     C3 4081   1.085   1.046   2.961
  300DMF     O1 4082   1.047   1.140   2.895
  300DMF     H1 4083   1.381   1.124   2.923
  300DMF     H2 4084   1.261   1.128   2.792
  300DMF     H3 4085   1.369   0.986   2.810
  300DMF     H4 4086   1.314   0.814   2.954
  300DMF     H5 4087   1.170   0.823   3.058
  300DMF     H6 4088   1.324   0.908   3.104
  300DMF     H7 4089   1.023   0.992   3.035
  301DMF     C1 4090   3.014   2.350   3.554
  301DMF     N1 4091   3.104   2.251   3.617
  301DMF     C2 4092   3.065   2.109   3.617
  301DMF     C3 4093   3.232   2.290   3.659
  301DMF     O1 4094   3.263   2.407   3.672
  301DMF     H1 4095   2.964   2.305   3.468
  301DMF     H2 4096   3.071   2.436   3.518
  301DMF     H3 4097   2.940   2.385   3.628
  301DMF     H4 4098   2.991   2.092   3.696
  301DMF     H5 4099   3.153   2.045   3.637
  301DMF     H6 4100   3.022   2.080   3.520
  301DMF     H7 4101   3.299   2.205   3.681
  302DMF     C1 4102   0.548   0.976   2.230
  302DMF     N1 4103   0.591   1.115   2.203
  302DMF     C2 4104   0.733   1.148   2.210
  302DMF     C3 4105   0.498   1.218   2.188
  302DMF     O1 4106   0.378   1.201   2.183
  302DMF     H1 4107   0.611   0.905   2.175
  302DMF     H2 4108   0.444   0.961   2.200
  302DMF     H3 4109   0.557   0.955   2.338
  302DMF     H4 4110   0.752   1.185   2.311
  302DMF     H5 4111   0.757   1.229   2.141
  302DMF     H6 4112   0.795   1.060   2.187
  302DMF     H7 4113   0.547   1.317   2.179
  303DMF     C1 4114   2.988   0.356   3.634
  303DMF     N1 4115   3.017   0.252   3.533
  303DMF     C2 4116   2.916   0.147   3.515
  303DMF     C3 4117   3.135   0.251   3.457
  303DMF     O1 4118   3.220   0.339   3.464
  303DMF     H1 4119   2.894   0.407   3.607
  303DMF     H2 4120   3.069   0.430   3.639
  303DMF     H3 4121   2.976   0.309   3.732
  303DMF     H4 4122   2.923   0.075   3.597
  303DMF     H5 4123   2.930   0.096   3.419
  303DMF     H6 4124   2.818   0.195   3.517
  303DMF     H7 4125   3.141   0.165   3.388
  304DMF     C1 4126   1.549   3.127   3.512
  304DMF     N1 4127   1.478   3.163   3.389
  304DMF     C2 4128   1.439   3.303   3.372
  304DMF     C3 4129   1.429   3.065   3.302
  304DMF     O1 4130   1.462   2.948   3.310
  304DMF     H1 4131   1.628   3.202   3.529
  304DMF     H2 4132   1.594   3.027   3.503
  304DMF     H3 4133   1.480   3.129   3.596
  304DMF     H4 4134   1.395   3.338   3.466
  304DMF     H5 4135   1.365   3.314   3.292
  304DMF     H6 4136   1.528   3.363   3.348
  304DMF     H7 4137   1.358   3.105   3.228
  305DMF     C1 4138   1.299   0.146   2.754
  305DMF     N1 4139   1.178   0.228   2.745
  305DMF     C2 4140   1.051   0.163   2.711
  305DMF     C3 4141   1.180   0.360   2.788
  305DMF     O1 4142   1.279   0.408   2.841
  305DMF     H1 4143   1.289   0.075   2.837
  305DMF     H2 4144   1.388   0.208   2.773
  305DMF     H3 4145   1.314   0.094   2.659
  305DMF     H4 4146   1.061   0.112   2.614
  305DMF     H5 4147   0.970   0.237   2.704
  305DMF     H6 4148   1.026   0.090   2.789
  305DMF     H7 4149   1.084   0.414   2.776
  306DMF     C1 4150   0.468   1.858   2.830
  306DMF     N1 4151   0.521   1.996   2.832
  306DMF     C2 4152   0.427   2.105   2.861
  306DMF     C3 4153   0.655   2.023   2.800
  306DMF     O1 4154   0.732   1.938   2.760
  306DMF     H1 4155   0.430   1.833   2.930
  306DMF     H2 4156   0.547   1.787   2.803
  306DMF     H3 4157   0.387   1.851   2.757
  306DMF     H4 4158   0.339   2.095   2.796
  306DMF     H5 4159   0.474   2.202   2.841
  306DMF     H6 4160   0.395   2.100   2.966
  306DMF     H7 4161   0.681   2.130   2.813
  307DMF     C1 4162   2.958   0.503   3.299
  307DMF     N1 4163   3.048   0.434   3.204
  307DMF     C2 4164   3.172   0.503   3.165
  307DMF     C3 4165   3.020   0.303   3.160
  307DMF     O1 4166   2.918   0.243   3.191
  307DMF     H1 4167   3.002   0.503   3.399
  307DMF     H2 4168   2.860   0.453   3.303
  307DMF     H3 4169   2.943   0.607   3.266
  307DMF     H4 4170   3.147   0.598   3.117
  307DMF     H5 4171   3.230   0.441   3.095
  307DMF     H6 4172   3.233   0.522   3.254
  307DMF     H7 4173   3.098   0.261   3.095
   3.40320   3.43847   3.80000
