DMF comparator n4
 4173
    1GR      C1    1   3.403   0.000   1.900  0.0000  0.0000  0.0000
    1GR      C2    2   0.142   0.000   1.900  0.0000  0.0000  0.0000
    1GR      C3    3   0.213   0.123   1.900  0.0000  0.0000  0.0000
    1GR      C4    4   0.354   0.123   1.900  0.0000  0.0000  0.0000
    1GR      C5    5   0.000   0.246   1.900  0.0000  0.0000  0.0000
    1GR      C6    6   0.142   0.246   1.900  0.0000  0.0000  0.0000
    1GR      C7    7   0.213   0.368   1.900  0.0000  0.0000  0.0000
    1GR      C8    8   0.354   0.368   1.900  0.0000  0.0000  0.0000
    1GR      C9    9   0.000   0.491   1.900  0.0000  0.0000  0.0000
    1GR     C10   10   0.142   0.491   1.900  0.0000  0.0000  0.0000
    1GR     C11   11   0.213   0.614   1.900  0.0000  0.0000  0.0000
    1GR     C12   12   0.354   0.614   1.900  0.0000  0.0000  0.0000
    1GR     C13   13   0.000   0.737   1.900  0.0000  0.0000  0.0000
    1GR     C14   14   0.142   0.737   1.900  0.0000  0.0000  0.0000
    1GR     C15   15   0.213   0.860   1.900  0.0000  0.0000  0.0000
    1GR     C16   16   0.354   0.860   1.900  0.0000  0.0000  0.0000
    1GR     C17   17   0.000   0.982   1.900  0.0000  0.0000  0.0000
    1GR     C18   18   0.142   0.982   1.900  0.0000  0.0000  0.0000
    1GR     C19   19   0.213   1.105   1.900  0.0000  0.0000  0.0000
    1GR     C20   20   0.354   1.105   1.900  0.0000  0.0000  0.0000
    1GR     C21   21   0.000   1.228   1.900  0.0000  0.0000  0.0000
    1GR     C22   22   0.142   1.228   1.900  0.0000  0.0000  0.0000
    1GR     C23   23   0.213   1.351   1.900  0.0000  0.0000  0.0000
    1GR     C24   24   0.354   1.351   1.900  0.0000  0.0000  0.0000
    1GR     C25   25   3.403   1.474   1.900  0.0000  0.0000  0.0000
    1GR     C26   26   0.142   1.474   1.900  0.0000  0.0000  0.0000
    1GR     C27   27   0.213   1.596   1.900  0.0000  0.0000  0.0000
    1GR     C28   28   0.354   1.596   1.900  0.0000  0.0000  0.0000
    1GR     C29   29   0.000   1.719   1.900  0.0000  0.0000  0.0000
    1GR     C30   30   0.142   1.719   1.900  0.0000  0.0000  0.0000
    1GR     C31   31   0.213   1.842   1.900  0.0000  0.0000  0.0000
    1GR     C32   32   0.354   1.842   1.900  0.0000  0.0000  0.0000
    1GR     C33   33   0.000   1.965   1.900  0.0000  0.0000  0.0000
    1GR     C34   34   0.142   1.965   1.900  0.0000  0.0000  0.0000
    1GR     C35   35   0.213   2.088   1.900  0.0000  0.0000  0.0000
    1GR     C36   36   0.354   2.088   1.900  0.0000  0.0000  0.0000
    1GR     C37   37   3.403   2.210   1.900  0.0000  0.0000  0.0000
    1GR     C38   38   0.142   2.210   1.900  0.0000  0.0000  0.0000
    1GR     C39   39   0.213   2.333   1.900  0.0000  0.0000  0.0000
    1GR     C40   40   0.354   2.333   1.900  0.0000  0.0000  0.0000
    1GR     C41   41   0.000   2.456   1.900  0.0000  0.0000  0.0000
    1GR     C42   42   0.142   2.456   1.900  0.0000  0.0000  0.0000
    1GR     C43   43   0.213   2.579   1.900  0.0000  0.0000  0.0000
    1GR     C44   44   0.354   2.579   1.900  0.0000  0.0000  0.0000
    1GR     C45   45   0.000   2.702   1.900  0.0000  0.0000  0.0000
    1GR     C46   46   0.142   2.702   1.900  0.0000  0.0000  0.0000
    1GR     C47   47   0.213   2.824   1.900  0.0000  0.0000  0.0000
    1GR     C48   48   0.354   2.824   1.900  0.0000  0.0000  0.0000
    1GR     C49   49   0.000   2.947   1.900  0.0000  0.0000  0.0000
    1GR     C50   50   0.142   2.947   1.900  0.0000  0.0000  0.0000
    1GR     C51   51   0.213   3.070   1.900  0.0000  0.0000  0.0000
    1GR     C52   52   0.354   3.070   1.900  0.0000  0.0000  0.0000
    1GR     C53   53   0.000   3.193   1.900  0.0000  0.0000  0.0000
    1GR     C54   54   0.142   3.193   1.900  0.0000  0.0000  0.0000
    1GR     C55   55   0.213   3.316   1.900  0.0000  0.0000  0.0000
    1GR     C56   56   0.354   3.316   1.900  0.0000  0.0000  0.0000
    1GR     C57   57   0.425   0.000   1.900  0.0000  0.0000  0.0000
    1GR     C58   58   0.567   0.000   1.900  0.0000  0.0000  0.0000
    1GR     C59   59   0.638   0.123   1.900  0.0000  0.0000  0.0000
    1GR     C60   60   0.780   0.123   1.900  0.0000  0.0000  0.0000
    1GR     C61   61   0.425   0.246   1.900  0.0000  0.0000  0.0000
    1GR     C62   62   0.567   0.246   1.900  0.0000  0.0000  0.0000
    1GR     C63   63   0.638   0.368   1.900  0.0000  0.0000  0.0000
    1GR     C64   64   0.780   0.368   1.900  0.0000  0.0000  0.0000
    1GR     C65   65   0.425   0.491   1.900  0.0000  0.0000  0.0000
    1GR     C66   66   0.567   0.491   1.900  0.0000  0.0000  0.0000
    1GR     C67   67   0.638   0.614   1.900  0.0000  0.0000  0.0000
    1GR     C68   68   0.780   0.614   1.900  0.0000  0.0000  0.0000
    1GR     C69   69   0.425   0.737   1.900  0.0000  0.0000  0.0000
    1GR     C70   70   0.567   0.737   1.900  0.0000  0.0000  0.0000
    1GR     C71   71   0.638   0.860   1.900  0.0000  0.0000  0.0000
    1GR     C72   72   0.780   0.860   1.900  0.0000  0.0000  0.0000
    1GR     C73   73   0.425   0.982   1.900  0.0000  0.0000  0.0000
    1GR     C74   74   0.567   0.982   1.900  0.0000  0.0000  0.0000
    1GR     C75   75   0.638   1.105   1.900  0.0000  0.0000  0.0000
    1GR     C76   76   0.780   1.105   1.900  0.0000  0.0000  0.0000
    1GR     C77   77   0.425   1.228   1.900  0.0000  0.0000  0.0000
    1GR     C78   78   0.567   1.228   1.900  0.0000  0.0000  0.0000
    1GR     C79   79   0.638   1.351   1.900  0.0000  0.0000  0.0000
    1GR     C80   80   0.780   1.351   1.900  0.0000  0.0000  0.0000
    1GR     C81   81   0.425   1.474   1.900  0.0000  0.0000  0.0000
    1GR     C82   82   0.567   1.474   1.900  0.0000  0.0000  0.0000
    1GR     C83   83   0.638   1.596   1.900  0.0000  0.0000  0.0000
    1GR     C84   84   0.780   1.596   1.900  0.0000  0.0000  0.0000
    1GR     C85   85   0.425   1.719   1.900  0.0000  0.0000  0.0000
    1GR     C86   86   0.567   1.719   1.900  0.0000  0.0000  0.0000
    1GR     C87   87   0.638   1.842   1.900  0.0000  0.0000  0.0000
    1GR     C88   88   0.780   1.842   1.900  0.0000  0.0000  0.0000
    1GR     C89   89   0.425   1.965   1.900  0.0000  0.0000  0.0000
    1GR     C90   90   0.567   1.965   1.900  0.0000  0.0000  0.0000
    1GR     C91   91   0.638   2.088   1.900  0.0000  0.0000  0.0000
    1GR     C92   92   0.780   2.088   1.900  0.0000  0.0000  0.0000
    1GR     C93   93   0.425   2.210   1.900  0.0000  0.0000  0.0000
    1GR     C94   94   0.567   2.210   1.900  0.0000  0.0000  0.0000
    1GR     C95   95   0.638   2.333   1.900  0.0000  0.0000  0.0000
    1GR     C96   96   0.780   2.333   1.900  0.0000  0.0000  0.0000
    1GR     C97   97   0.425   2.456   1.900  0.0000  0.0000  0.0000
    1GR     C98   98   0.567   2.456   1.900  0.0000  0.0000  0.0000
    1GR     C99   99   0.638   2.579   1.900  0.0000  0.0000  0.0000
    1GR    C100  100   0.780   2.579   1.900  0.0000  0.0000  0.0000
    1GR    C101  101   0.425   2.702   1.900  0.0000  0.0000  0.0000
    1GR    C102  102   0.567   2.702   1.900  0.0000  0.0000  0.0000
    1GR    C103  103   0.638   2.824   1.900  0.0000  0.0000  0.0000
    1GR    C104  104   0.780   2.824   1.900  0.0000  0.0000  0.0000
    1GR    C105  105   0.425   2.947   1.900  0.0000  0.0000  0.0000
    1GR    C106  106   0.567   2.947   1.900  0.0000  0.0000  0.0000
    1GR    C107  107   0.638   3.070   1.900  0.0000  0.0000  0.0000
    1GR    C108  108   0.780   3.070   1.900  0.0000  0.0000  0.0000
    1GR    C109  109   0.425   3.193   1.900  0.0000  0.0000  0.0000
    1GR    C110  110   0.567   3.193   1.900  0.0000  0.0000  0.0000
    1GR    C111  111   0.638   3.316   1.900  0.0000  0.0000  0.0000
    1GR    C112  112   0.780   3.316   1.900  0.0000  0.0000  0.0000
    1GR    C113  113   0.851   0.000   1.900  0.0000  0.0000  0.0000
    1GR    C114  114   0.993   0.000   1.900  0.0000  0.0000  0.0000
    1GR    C115  115   1.064   0.123   1.900  0.0000  0.0000  0.0000
    1GR    C116  116   1.205   0.123   1.900  0.0000  0.0000  0.0000
    1GR    C117  117   0.851   0.246   1.900  0.0000  0.0000  0.0000
    1GR    C118  118   0.993   0.246   1.900  0.0000  0.0000  0.0000
    1GR    C119  119   1.064   0.368   1.900  0.0000  0.0000  0.0000
    1GR    C120  120   1.205   0.368   1.900  0.0000  0.0000  0.0000
    1GR    C121  121   0.851   0.491   1.900  0.0000  0.0000  0.0000
    1GR    C122  122   0.993   0.491   1.900  0.0000  0.0000  0.0000
    1GR    C123  123   1.064   0.614   1.900  0.0000  0.0000  0.0000
    1GR    C124  124   1.205   0.614   1.900  0.0000  0.0000  0.0000
    1GR    C125  125   0.851   0.737   1.900  0.0000  0.0000  0.0000
    1GR    C126  126   0.993   0.737   1.900  0.0000  0.0000  0.0000
    1GR    C127  127   1.064   0.860   1.900  0.0000  0.0000  0.0000
    1GR    C128  128   1.205   0.860   1.900  0.0000  0.0000  0.0000
    1GR    C129  129   0.851   0.982   1.900  0.0000  0.0000  0.0000
    1GR    C130  130   0.993   0.982   1.900  0.0000  0.0000  0.0000
    1GR    C131  131   1.064   1.105   1.900  0.0000  0.0000  0.0000
    1GR    C132  132   1.205   1.105   1.900  0.0000  0.0000  0.0000
    1GR    C133  133   0.851   1.228   1.900  0.0000  0.0000  0.0000
    1GR    C134  134   0.993   1.228   1.900  0.0000  0.0000  0.0000
    1GR    C135  135   1.064   1.351   1.900  0.0000  0.0000  0.0000
    1GR    C136  136   1.205   1.351   1.900  0.0000  0.0000  0.0000
    1GR    C137  137   0.851   1.474   1.900  0.0000  0.0000  0.0000
    1GR    C138  138   0.993   1.474   1.900  0.0000  0.0000  0.0000
    1GR    C139  139   1.064   1.596   1.900  0.0000  0.0000  0.0000
    1GR    C140  140   1.205   1.596   1.900  0.0000  0.0000  0.0000
    1GR    C141  141   0.851   1.719   1.900  0.0000  0.0000  0.0000
    1GR    C142  142   0.993   1.719   1.900  0.0000  0.0000  0.0000
    1GR    C143  143   1.064   1.842   1.900  0.0000  0.0000  0.0000
    1GR    C144  144   1.205   1.842   1.900  0.0000  0.0000  0.0000
    1GR    C145  145   0.851   1.965   1.900  0.0000  0.0000  0.0000
    1GR    C146  146   0.993   1.965   1.900  0.0000  0.0000  0.0000
    1GR    C147  147   1.064   2.088   1.900  0.0000  0.0000  0.0000
    1GR    C148  148   1.205   2.088   1.900  0.0000  0.0000  0.0000
    1GR    C149  149   0.851   2.210   1.900  0.0000  0.0000  0.0000
    1GR    C150  150   0.993   2.210   1.900  0.0000  0.0000  0.0000
    1GR    C151  151   1.064   2.333   1.900  0.0000  0.0000  0.0000
    1GR    C152  152   1.205   2.333   1.900  0.0000  0.0000  0.0000
    1GR    C153  153   0.851   2.456   1.900  0.0000  0.0000  0.0000
    1GR    C154  154   0.993   2.456   1.900  0.0000  0.0000  0.0000
    1GR    C155  155   1.064   2.579   1.900  0.0000  0.0000  0.0000
    1GR    C156  156   1.205   2.579   1.900  0.0000  0.0000  0.0000
    1GR    C157  157   0.851   2.702   1.900  0.0000  0.0000  0.0000
    1GR    C158  158   0.993   2.702   1.900  0.0000  0.0000  0.0000
    1GR    C159  159   1.064   2.824   1.900  0.0000  0.0000  0.0000
    1GR    C160  160   1.205   2.824   1.900  0.0000  0.0000  0.0000
    1GR    C161  161   0.851   2.947   1.900  0.0000  0.0000  0.0000
    1GR    C162  162   0.993   2.947   1.900  0.0000  0.0000  0.0000
    1GR    C163  163   1.064   3.070   1.900  0.0000  0.0000  0.0000
    1GR    C164  164   1.205   3.070   1.900  0.0000  0.0000  0.0000
    1GR    C165  165   0.851   3.193   1.900  0.0000  0.0000  0.0000
    1GR    C166  166   0.993   3.193   1.900  0.0000  0.0000  0.0000
    1GR    C167  167   1.064   3.316   1.900  0.0000  0.0000  0.0000
    1GR    C168  168   1.205   3.316   1.900  0.0000  0.0000  0.0000
    1GR    C169  169   1.276   0.000   1.900  0.0000  0.0000  0.0000
    1GR    C170  170   1.418   0.000   1.900  0.0000  0.0000  0.0000
    1GR    C171  171   1.489   0.123   1.900  0.0000  0.0000  0.0000
    1GR    C172  172   1.631   0.123   1.900  0.0000  0.0000  0.0000
    1GR    C173  173   1.276   0.246   1.900  0.0000  0.0000  0.0000
    1GR    C174  174   1.418   0.246   1.900  0.0000  0.0000  0.0000
    1GR    C175  175   1.489   0.368   1.900  0.0000  0.0000  0.0000
    1GR    C176  176   1.631   0.368   1.900  0.0000  0.0000  0.0000
    1GR    C177  177   1.276   0.491   1.900  0.0000  0.0000  0.0000
    1GR    C178  178   1.418   0.491   1.900  0.0000  0.0000  0.0000
    1GR    C179  179   1.489   0.614   1.900  0.0000  0.0000  0.0000
    1GR    C180  180   1.631   0.614   1.900  0.0000  0.0000  0.0000
    1GR    C181  181   1.276   0.737   1.900  0.0000  0.0000  0.0000
    1GR    C182  182   1.418   0.737   1.900  0.0000  0.0000  0.0000
    1GR    C183  183   1.489   0.860   1.900  0.0000  0.0000  0.0000
    1GR    C184  184   1.631   0.860   1.900  0.0000  0.0000  0.0000
    1GR    C185  185   1.276   0.982   1.900  0.0000  0.0000  0.0000
    1GR    C186  186   1.418   0.982   1.900  0.0000  0.0000  0.0000
    1GR    C187  187   1.489   1.105   1.900  0.0000  0.0000  0.0000
    1GR    C188  188   1.631   1.105   1.900  0.0000  0.0000  0.0000
    1GR    C189  189   1.276   1.228   1.900  0.0000  0.0000  0.0000
    1GR    C190  190   1.418   1.228   1.900  0.0000  0.0000  0.0000
    1GR    C191  191   1.489   1.351   1.900  0.0000  0.0000  0.0000
    1GR    C192  192   1.631   1.351   1.900  0.0000  0.0000  0.0000
    1GR    C193  193   1.276   1.474   1.900  0.0000  0.0000  0.0000
    1GR    C194  194   1.418   1.474   1.900  0.0000  0.0000  0.0000
    1GR    C195  195   1.489   1.596   1.900  0.0000  0.0000  0.0000
    1GR    C196  196   1.631   1.596   1.900  0.0000  0.0000  0.0000
    1GR    C197  197   1.276   1.719   1.900  0.0000  0.0000  0.0000
    1GR    C198  198   1.418   1.719   1.900  0.0000  0.0000  0.0000
    1GR    C199  199   1.489   1.842   1.900  0.0000  0.0000  0.0000
    1GR    C200  200   1.631   1.842   1.900  0.0000  0.0000  0.0000
    1GR    C201  201   1.276   1.965   1.900  0.0000  0.0000  0.0000
    1GR    C202  202   1.418   1.965   1.900  0.0000  0.0000  0.0000
    1GR    C203  203   1.489   2.088   1.900  0.0000  0.0000  0.0000
    1GR    C204  204   1.631   2.088   1.900  0.0000  0.0000  0.0000
    1GR    C205  205   1.276   2.210   1.900  0.0000  0.0000  0.0000
    1GR    C206  206   1.418   2.210   1.900  0.0000  0.0000  0.0000
    1GR    C207  207   1.489   2.333   1.900  0.0000  0.0000  0.0000
    1GR    C208  208   1.631   2.333   1.900  0.0000  0.0000  0.0000
    1GR    C209  209   1.276   2.456   1.900  0.0000  0.0000  0.0000
    1GR    C210  210   1.418   2.456   1.900  0.0000  0.0000  0.0000
    1GR    C211  211   1.489   2.579   1.900  0.0000  0.0000  0.0000
    1GR    C212  212   1.631   2.579   1.900  0.0000  0.0000  0.0000
    1GR    C213  213   1.276   2.702   1.900  0.0000  0.0000  0.0000
    1GR    C214  214   1.418   2.702   1.900  0.0000  0.0000  0.0000
    1GR    C215  215   1.489   2.824   1.900  0.0000  0.0000  0.0000
    1GR    C216  216   1.631   2.824   1.900  0.0000  0.0000  0.0000
    1GR    C217  217   1.276   2.947   1.900  0.0000  0.0000  0.0000
    1GR    C218  218   1.418   2.947   1.900  0.0000  0.0000  0.0000
    1GR    C219  219   1.489   3.070   1.900  0.0000  0.0000  0.0000
    1GR    C220  220   1.631   3.070   1.900  0.0000  0.0000  0.0000
    1GR    C221  221   1.276   3.193   1.900  0.0000  0.0000  0.0000
    1GR    C222  222   1.418   3.193   1.900  0.0000  0.0000  0.0000
    1GR    C223  223   1.489   3.316   1.900  0.0000  0.0000  0.0000
    1GR    C224  224   1.631   3.316   1.900  0.0000  0.0000  0.0000
    1GR    C225  225   1.702   0.000   1.900  0.0000  0.0000  0.0000
    1GR    C226  226   1.843   0.000   1.900  0.0000  0.0000  0.0000
    1GR    C227  227   1.914   0.123   1.900  0.0000  0.0000  0.0000
    1GR    C228  228   2.056   0.123   1.900  0.0000  0.0000  0.0000
    1GR    C229  229   1.702   0.246   1.900  0.0000  0.0000  0.0000
    1GR    C230  230   1.843   0.246   1.900  0.0000  0.0000  0.0000
    1GR    C231  231   1.914   0.368   1.900  0.0000  0.0000  0.0000
    1GR    C232  232   2.056   0.368   1.900  0.0000  0.0000  0.0000
    1GR    C233  233   1.702   0.491   1.900  0.0000  0.0000  0.0000
    1GR    C234  234   1.843   0.491   1.900  0.0000  0.0000  0.0000
    1GR    C235  235   1.914   0.614   1.900  0.0000  0.0000  0.0000
    1GR    C236  236   2.056   0.614   1.900  0.0000  0.0000  0.0000
    1GR    C237  237   1.702   0.737   1.900  0.0000  0.0000  0.0000
    1GR    C238  238   1.843   0.737   1.900  0.0000  0.0000  0.0000
    1GR    C239  239   1.914   0.860   1.900  0.0000  0.0000  0.0000
    1GR    C240  240   2.056   0.860   1.900  0.0000  0.0000  0.0000
    1GR    C241  241   1.702   0.982   1.900  0.0000  0.0000  0.0000
    1GR    C242  242   1.843   0.982   1.900  0.0000  0.0000  0.0000
    1GR    C243  243   1.914   1.105   1.900  0.0000  0.0000  0.0000
    1GR    C244  244   2.056   1.105   1.900  0.0000  0.0000  0.0000
    1GR    C245  245   1.702   1.228   1.900  0.0000  0.0000  0.0000
    1GR    C246  246   1.843   1.228   1.900  0.0000  0.0000  0.0000
    1GR    C247  247   1.914   1.351   1.900  0.0000  0.0000  0.0000
    1GR    C248  248   2.056   1.351   1.900  0.0000  0.0000  0.0000
    1GR    C249  249   1.702   1.474   1.900  0.0000  0.0000  0.0000
    1GR    C250  250   1.843   1.474   1.900  0.0000  0.0000  0.0000
    1GR    C251  251   1.914   1.596   1.900  0.0000  0.0000  0.0000
    1GR    C252  252   2.056   1.596   1.900  0.0000  0.0000  0.0000
    1GR    C253  253   1.702   1.719   1.900  0.0000  0.0000  0.0000
    1GR    C254  254   1.843   1.719   1.900  0.0000  0.0000  0.0000
    1GR    C255  255   1.914   1.842   1.900  0.0000  0.0000  0.0000
    1GR    C256  256   2.056   1.842   1.900  0.0000  0.0000  0.0000
    1GR    C257  257   1.702   1.965   1.900  0.0000  0.0000  0.0000
    1GR    C258  258   1.843   1.965   1.900  0.0000  0.0000  0.0000
    1GR    C259  259   1.914   2.088   1.900  0.0000  0.0000  0.0000
    1GR    C260  260   2.056   2.088   1.900  0.0000  0.0000  0.0000
    1GR    C261  261   1.702   2.210   1.900  0.0000  0.0000  0.0000
    1GR    C262  262   1.843   2.210   1.900  0.0000  0.0000  0.0000
    1GR    C263  263   1.914   2.333   1.900  0.0000  0.0000  0.0000
    1GR    C264  264   2.056   2.333   1.900  0.0000  0.0000  0.0000
    1GR    C265  265   1.702   2.456   1.900  0.0000  0.0000  0.0000
    1GR    C266  266   1.843   2.456   1.900  0.0000  0.0000  0.0000
    1GR    C267  267   1.914   2.579   1.900  0.0000  0.0000  0.0000
    1GR    C268  268   2.056   2.579   1.900  0.0000  0.0000  0.0000
    1GR    C269  269   1.702   2.702   1.900  0.0000  0.0000  0.0000
    1GR    C270  270   1.843   2.702   1.900  0.0000  0.0000  0.0000
    1GR    C271  271   1.914   2.824   1.900  0.0000  0.0000  0.0000
    1GR    C272  272   2.056   2.824   1.900  0.0000  0.0000  0.0000
    1GR    C273  273   1.702   2.947   1.900  0.0000  0.0000  0.0000
    1GR    C274  274   1.843   2.947   1.900  0.0000  0.0000  0.0000
    1GR    C275  275   1.914   3.070   1.900  0.0000  0.0000  0.0000
    1GR    C276  276   2.056   3.070   1.900  0.0000  0.0000  0.0000
    1GR    C277  277   1.702   3.193   1.900  0.0000  0.0000  0.0000
    1GR    C278  278   1.843   3.193   1.900  0.0000  0.0000  0.0000
    1GR    C279  279   1.914   3.316   1.900  0.0000  0.0000  0.0000
    1GR    C280  280   2.056   3.316   1.900  0.0000  0.0000  0.0000
    1GR    C281  281   2.127   0.000   1.900  0.0000  0.0000  0.0000
    1GR    C282  282   2.269   0.000   1.900  0.0000  0.0000  0.0000
    1GR    C283  283   2.340   0.123   1.900  0.0000  0.0000  0.0000
    1GR    C284  284   2.481   0.123   1.900  0.0000  0.0000  0.0000
    1GR    C285  285   2.127   0.246   1.900  0.0000  0.0000  0.0000
    1GR    C286  286   2.269   0.246   1.900  0.0000  0.0000  0.0000
    1GR    C287  287   2.340   0.368   1.900  0.0000  0.0000  0.0000
    1GR    C288  288   2.481   0.368   1.900  0.0000  0.0000  0.0000
    1GR    C289  289   2.127   0.491   1.900  0.0000  0.0000  0.0000
    1GR    C290  290   2.269   0.491   1.900  0.0000  0.0000  0.0000
    1GR    C291  291   2.340   0.614   1.900  0.0000  0.0000  0.0000
    1GR    C292  292   2.481   0.614   1.900  0.0000  0.0000  0.0000
    1GR    C293  293   2.127   0.737   1.900  0.0000  0.0000  0.0000
    1GR    C294  294   2.269   0.737   1.900  0.0000  0.0000  0.0000
    1GR    C295  295   2.340   0.860   1.900  0.0000  0.0000  0.0000
    1GR    C296  296   2.481   0.860   1.900  0.0000  0.0000  0.0000
    1GR    C297  297   2.127   0.982   1.900  0.0000  0.0000  0.0000
    1GR    C298  298   2.269   0.982   1.900  0.0000  0.0000  0.0000
    1GR    C299  299   2.340   1.105   1.900  0.0000  0.0000  0.0000
    1GR    C300  300   2.481   1.105   1.900  0.0000  0.0000  0.0000
    1GR    C301  301   2.127   1.228   1.900  0.0000  0.0000  0.0000
    1GR    C302  302   2.269   1.228   1.900  0.0000  0.0000  0.0000
    1GR    C303  303   2.340   1.351   1.900  0.0000  0.0000  0.0000
    1GR    C304  304   2.481   1.351   1.900  0.0000  0.0000  0.0000
    1GR    C305  305   2.127   1.474   1.900  0.0000  0.0000  0.0000
    1GR    C306  306   2.269   1.474   1.900  0.0000  0.0000  0.0000
    1GR    C307  307   2.340   1.596   1.900  0.0000  0.0000  0.0000
    1GR    C308  308   2.481   1.596   1.900  0.0000  0.0000  0.0000
    1GR    C309  309   2.127   1.719   1.900  0.0000  0.0000  0.0000
    1GR    C310  310   2.269   1.719   1.900  0.0000  0.0000  0.0000
    1GR    C311  311   2.340   1.842   1.900  0.0000  0.0000  0.0000
    1GR    C312  312   2.481   1.842   1.900  0.0000  0.0000  0.0000
    1GR    C313  313   2.127   1.965   1.900  0.0000  0.0000  0.0000
    1GR    C314  314   2.269   1.965   1.900  0.0000  0.0000  0.0000
    1GR    C315  315   2.340   2.088   1.900  0.0000  0.0000  0.0000
    1GR    C316  316   2.481   2.088   1.900  0.0000  0.0000  0.0000
    1GR    C317  317   2.127   2.210   1.900  0.0000  0.0000  0.0000
    1GR    C318  318   2.269   2.210   1.900  0.0000  0.0000  0.0000
    1GR    C319  319   2.340   2.333   1.900  0.0000  0.0000  0.0000
    1GR    C320  320   2.481   2.333   1.900  0.0000  0.0000  0.0000
    1GR    C321  321   2.127   2.456   1.900  0.0000  0.0000  0.0000
    1GR    C322  322   2.269   2.456   1.900  0.0000  0.0000  0.0000
    1GR    C323  323   2.340   2.579   1.900  0.0000  0.0000  0.0000
    1GR    C324  324   2.481   2.579   1.900  0.0000  0.0000  0.0000
    1GR    C325  325   2.127   2.702   1.900  0.0000  0.0000  0.0000
    1GR    C326  326   2.269   2.702   1.900  0.0000  0.0000  0.0000
    1GR    C327  327   2.340   2.824   1.900  0.0000  0.0000  0.0000
    1GR    C328  328   2.481   2.824   1.900  0.0000  0.0000  0.0000
    1GR    C329  329   2.127   2.947   1.900  0.0000  0.0000  0.0000
    1GR    C330  330   2.269   2.947   1.900  0.0000  0.0000  0.0000
    1GR    C331  331   2.340   3.070   1.900  0.0000  0.0000  0.0000
    1GR    C332  332   2.481   3.070   1.900  0.0000  0.0000  0.0000
    1GR    C333  333   2.127   3.193   1.900  0.0000  0.0000  0.0000
    1GR    C334  334   2.269   3.193   1.900  0.0000  0.0000  0.0000
    1GR    C335  335   2.340   3.316   1.900  0.0000  0.0000  0.0000
    1GR    C336  336   2.481   3.316   1.900  0.0000  0.0000  0.0000
    1GR    C337  337   2.552   0.000   1.900  0.0000  0.0000  0.0000
    1GR    C338  338   2.694   0.000   1.900  0.0000  0.0000  0.0000
    1GR    C339  339   2.765   0.123   1.900  0.0000  0.0000  0.0000
    1GR    C340  340   2.907   0.123   1.900  0.0000  0.0000  0.0000
    1GR    C341  341   2.552   0.246   1.900  0.0000  0.0000  0.0000
    1GR    C342  342   2.694   0.246   1.900  0.0000  0.0000  0.0000
    1GR    C343  343   2.765   0.368   1.900  0.0000  0.0000  0.0000
    1GR    C344  344   2.907   0.368   1.900  0.0000  0.0000  0.0000
    1GR    C345  345   2.552   0.491   1.900  0.0000  0.0000  0.0000
    1GR    C346  346   2.694   0.491   1.900  0.0000  0.0000  0.0000
    1GR    C347  347   2.765   0.614   1.900  0.0000  0.0000  0.0000
    1GR    C348  348   2.907   0.614   1.900  0.0000  0.0000  0.0000
    1GR    C349  349   2.552   0.737   1.900  0.0000  0.0000  0.0000
    1GR    C350  350   2.694   0.737   1.900  0.0000  0.0000  0.0000
    1GR    C351  351   2.765   0.860   1.900  0.0000  0.0000  0.0000
    1GR    C352  352   2.907   0.860   1.900  0.0000  0.0000  0.0000
    1GR    C353  353   2.552   0.982   1.900  0.0000  0.0000  0.0000
    1GR    C354  354   2.694   0.982   1.900  0.0000  0.0000  0.0000
    1GR    C355  355   2.765   1.105   1.900  0.0000  0.0000  0.0000
    1GR    C356  356   2.907   1.105   1.900  0.0000  0.0000  0.0000
    1GR    C357  357   2.552   1.228   1.900  0.0000  0.0000  0.0000
    1GR    C358  358   2.694   1.228   1.900  0.0000  0.0000  0.0000
    1GR    C359  359   2.765   1.351   1.900  0.0000  0.0000  0.0000
    1GR    C360  360   2.907   1.351   1.900  0.0000  0.0000  0.0000
    1GR    C361  361   2.552   1.474   1.900  0.0000  0.0000  0.0000
    1GR    C362  362   2.694   1.474   1.900  0.0000  0.0000  0.0000
    1GR    C363  363   2.765   1.596   1.900  0.0000  0.0000  0.0000
    1GR    C364  364   2.907   1.596   1.900  0.0000  0.0000  0.0000
    1GR    C365  365   2.552   1.719   1.900  0.0000  0.0000  0.0000
    1GR    C366  366   2.694   1.719   1.900  0.0000  0.0000  0.0000
    1GR    C367  367   2.765   1.842   1.900  0.0000  0.0000  0.0000
    1GR    C368  368   2.907   1.842   1.900  0.0000  0.0000  0.0000
    1GR    C369  369   2.552   1.965   1.900  0.0000  0.0000  0.0000
    1GR    C370  370   2.694   1.965   1.900  0.0000  0.0000  0.0000
    1GR    C371  371   2.765   2.088   1.900  0.0000  0.0000  0.0000
    1GR    C372  372   2.907   2.088   1.900  0.0000  0.0000  0.0000
    1GR    C373  373   2.552   2.210   1.900  0.0000  0.0000  0.0000
    1GR    C374  374   2.694   2.210   1.900  0.0000  0.0000  0.0000
    1GR    C375  375   2.765   2.333   1.900  0.0000  0.0000  0.0000
    1GR    C376  376   2.907   2.333   1.900  0.0000  0.0000  0.0000
    1GR    C377  377   2.552   2.456   1.900  0.0000  0.0000  0.0000
    1GR    C378  378   2.694   2.456   1.900  0.0000  0.0000  0.0000
    1GR    C379  379   2.765   2.579   1.900  0.0000  0.0000  0.0000
    1GR    C380  380   2.907   2.579   1.900  0.0000  0.0000  0.0000
    1GR    C381  381   2.552   2.702   1.900  0.0000  0.0000  0.0000
    1GR    C382  382   2.694   2.702   1.900  0.0000  0.0000  0.0000
    1GR    C383  383   2.765   2.824   1.900  0.0000  0.0000  0.0000
    1GR    C384  384   2.907   2.824   1.900  0.0000  0.0000  0.0000
    1GR    C385  385   2.552   2.947   1.900  0.0000  0.0000  0.0000
    1GR    C386  386   2.694   2.947   1.900  0.0000  0.0000  0.0000
    1GR    C387  387   2.765   3.070   1.900  0.0000  0.0000  0.0000
    1GR    C388  388   2.907   3.070   1.900  0.0000  0.0000  0.0000
    1GR    C389  389   2.552   3.193   1.900  0.0000  0.0000  0.0000
    1GR    C390  390   2.694   3.193   1.900  0.0000  0.0000  0.0000
    1GR    C391  391   2.765   3.316   1.900  0.0000  0.0000  0.0000
    1GR    C392  392   2.907   3.316   1.900  0.0000  0.0000  0.0000
    1GR    C393  393   2.978   0.000   1.900  0.0000  0.0000  0.0000
    1GR    C394  394   3.120   0.000   1.900  0.0000  0.0000  0.0000
    1GR    C395  395   3.191   0.123   1.900  0.0000  0.0000  0.0000
    1GR    C396  396   3.332   0.123   1.900  0.0000  0.0000  0.0000
    1GR    C397  397   2.978   0.246   1.900  0.0000  0.0000  0.0000
    1GR    C398  398   3.120   0.246   1.900  0.0000  0.0000  0.0000
    1GR    C399  399   3.191   0.368   1.900  0.0000  0.0000  0.0000
    1GR    C400  400   3.332   0.368   1.900  0.0000  0.0000  0.0000
    1GR    C401  401   2.978   0.491   1.900  0.0000  0.0000  0.0000
    1GR    C402  402   3.120   0.491   1.900  0.0000  0.0000  0.0000
    1GR    C403  403   3.191   0.614   1.900  0.0000  0.0000  0.0000
    1GR    C404  404   3.332   0.614   1.900  0.0000  0.0000  0.0000
    1GR    C405  405   2.978   0.737   1.900  0.0000  0.0000  0.0000
    1GR    C406  406   3.120   0.737   1.900  0.0000  0.0000  0.0000
    1GR    C407  407   3.191   0.860   1.900  0.0000  0.0000  0.0000
    1GR    C408  408   3.332   0.860   1.900  0.0000  0.0000  0.0000
    1GR    C409  409   2.978   0.982   1.900  0.0000  0.0000  0.0000
    1GR    C410  410   3.120   0.982   1.900  0.0000  0.0000  0.0000
    1GR    C411  411   3.191   1.105   1.900  0.0000  0.0000  0.0000
    1GR    C412  412   3.332   1.105   1.900  0.0000  0.0000  0.0000
    1GR    C413  413   2.978   1.228   1.900  0.0000  0.0000  0.0000
    1GR    C414  414   3.120   1.228   1.900  0.0000  0.0000  0.0000
    1GR    C415  415   3.191   1.351   1.900  0.0000  0.0000  0.0000
    1GR    C416  416   3.332   1.351   1.900  0.0000  0.0000  0.0000
    1GR    C417  417   2.978   1.474   1.900  0.0000  0.0000  0.0000
    1GR    C418  418   3.120   1.474   1.900  0.0000  0.0000  0.0000
    1GR    C419  419   3.191   1.596   1.900  0.0000  0.0000  0.0000
    1GR    C420  420   3.332   1.596   1.900  0.0000  0.0000  0.0000
    1GR    C421  421   2.978   1.719   1.900  0.0000  0.0000  0.0000
    1GR    C422  422   3.120   1.719   1.900  0.0000  0.0000  0.0000
    1GR    C423  423   3.191   1.842   1.900  0.0000  0.0000  0.0000
    1GR    C424  424   3.332   1.842   1.900  0.0000  0.0000  0.0000
    1GR    C425  425   2.978   1.965   1.900  0.0000  0.0000  0.0000
    1GR    C426  426   3.120   1.965   1.900  0.0000  0.0000  0.0000
    1GR    C427  427   3.191   2.088   1.900  0.0000  0.0000  0.0000
    1GR    C428  428   3.332   2.088   1.900  0.0000  0.0000  0.0000
    1GR    C429  429   2.978   2.210   1.900  0.0000  0.0000  0.0000
    1GR    C430  430   3.120   2.210   1.900  0.0000  0.0000  0.0000
    1GR    C431  431   3.191   2.333   1.900  0.0000  0.0000  0.0000
    1GR    C432  432   3.332   2.333   1.900  0.0000  0.0000  0.0000
    1GR    C433  433   2.978   2.456   1.900  0.0000  0.0000  0.0000
    1GR    C434  434   3.120   2.456   1.900  0.0000  0.0000  0.0000
    1GR    C435  435   3.191   2.579   1.900  0.0000  0.0000  0.0000
    1GR    C436  436   3.332   2.579   1.900  0.0000  0.0000  0.0000
    1GR    C437  437   2.978   2.702   1.900  0.0000  0.0000  0.0000
    1GR    C438  438   3.120   2.702   1.900  0.0000  0.0000  0.0000
    1GR    C439  439   3.191   2.824   1.900  0.0000  0.0000  0.0000
    1GR    C440  440   3.332   2.824   1.900  0.0000  0.0000  0.0000
    1GR    C441  441   2.978   2.947   1.900  0.0000  0.0000  0.0000
    1GR    C442  442   3.120   2.947   1.900  0.0000  0.0000  0.0000
    1GR    C443  443   3.191   3.070   1.900  0.0000  0.0000  0.0000
    1GR    C444  444   3.332   3.070   1.900  0.0000  0.0000  0.0000
    1GR    C445  445   2.978   3.193   1.900  0.0000  0.0000  0.0000
    1GR    C446  446   3.120   3.193   1.900  0.0000  0.0000  0.0000
    1GR    C447  447   3.191   3.316   1.900  0.0000  0.0000  0.0000
    1GR    C448  448   3.332   3.316   1.900  0.0000  0.0000  0.0000
    2PMMA   CX1  449   1.533   1.974   2.600  0.1936 -0.2339  0.0952
    2PMMA   CA2  450   1.647   1.919   2.511 -0.1836  0.0991  0.1292
    2PMMA   CX3  451   1.635   1.992   2.379  0.6244 -0.5146 -0.1786
    2PMMA    C4  452   1.782   1.945   2.582  0.6848  0.6010 -0.5729
    2PMMA    O5  453   1.808   1.929   2.696 -0.3744  0.1533 -0.4455
    2PMMA   OS6  454   1.876   1.999   2.504  0.2947 -0.5816  0.4714
    2PMMA   CE7  455   2.015   2.022   2.547  0.6642 -0.3509  0.1589
    2PMMA   CX8  456   1.626   1.757   2.484  0.1811 -0.2642  0.1644
    2PMMA   CA9  457   1.731   1.655   2.416  0.4992  0.2702 -0.0612
    2PMMA  CX10  458   1.783   1.702   2.276  0.4188 -0.3808 -0.1959
    2PMMA   C11  459   1.648   1.527   2.408  0.3752  0.0888  0.2361
    2PMMA   O12  460   1.580   1.507   2.309 -0.4081  0.1121  0.1463
    2PMMA  OS13  461   1.651   1.444   2.512 -0.0733 -0.4312 -0.3568
    2PMMA  CE14  462   1.564   1.331   2.507  0.5242  0.8873  0.1440
    2PMMA  CX15  463   1.857   1.620   2.507  0.8267  0.2192 -0.1805
    2PMMA  CA16  464   1.979   1.524   2.490  0.2587 -0.3151  0.2407
    2PMMA  CX17  465   2.053   1.528   2.626 -0.0706 -0.1305 -0.2939
    2PMMA   C18  466   1.946   1.375   2.451 -0.3369 -0.4376  0.5098
    2PMMA   O19  467   1.962   1.278   2.518 -0.0796 -0.2310  0.2501
    2PMMA  OS20  468   1.890   1.372   2.325 -0.1036 -0.1670  0.0572
    2PMMA  CE21  469   1.852   1.252   2.266  0.4302 -0.0775 -0.0058
    2PMMA  CX22  470   2.076   1.580   2.375 -0.5190 -0.8346 -0.3013
    2PMMA  CA23  471   2.226   1.541   2.360  0.3918  0.2324  0.3316
    2PMMA  CX24  472   2.243   1.392   2.359 -0.0105  0.4797 -0.5285
    2PMMA   C25  473   2.320   1.614   2.457 -0.4781 -0.0438  0.6532
    2PMMA   O26  474   2.303   1.728   2.494  0.2359  0.5396  0.4602
    2PMMA  OS27  475   2.401   1.537   2.527 -0.6297  0.1202 -0.4227
    2PMMA  CE28  476   2.494   1.592   2.626 -0.1517  0.3270 -0.2987
    2PMMA  CX29  477   2.283   1.587   2.225  0.7960 -0.0443 -0.0358
    2PMMA  HC30  478   1.549   1.935   2.701 -2.2670 -0.6994  0.3153
    2PMMA  HC31  479   1.513   2.082   2.600 -0.0042 -0.2706  0.5413
    2PMMA  HC32  480   1.438   1.929   2.571  0.3303  0.3507 -1.3226
    2PMMA  HC33  481   1.711   1.973   2.304 -1.3173  0.5067 -2.4760
    2PMMA  HC34  482   1.636   2.099   2.402  2.0319 -0.9659  2.0053
    2PMMA  HC35  483   1.538   1.970   2.333 -1.2964  1.1303  2.9259
    2PMMA  H136  484   2.089   2.014   2.467  0.2257  2.0159 -0.5305
    2PMMA  H137  485   2.029   1.947   2.625  0.3275 -2.5218 -1.8177
    2PMMA  H138  486   2.027   2.116   2.602 -0.3273 -0.0729 -0.1010
    2PMMA  HC39  487   1.611   1.721   2.587  2.0509  1.2433  0.9946
    2PMMA  HC40  488   1.531   1.752   2.429  0.3137 -1.7094  0.0648
    2PMMA  HC41  489   1.703   1.745   2.215 -0.5593 -1.1866  0.5002
    2PMMA  HC42  490   1.862   1.778   2.281  0.8483 -0.9008  1.2784
    2PMMA  HC43  491   1.831   1.628   2.211 -1.2807 -0.0494 -1.8645
    2PMMA  H144  492   1.577   1.278   2.601  0.5877 -0.7823 -0.7899
    2PMMA  H145  493   1.592   1.251   2.438 -0.0911  1.8656 -1.2568
    2PMMA  H146  494   1.466   1.375   2.493 -0.0515 -0.7982 -1.2444
    2PMMA  HC47  495   1.893   1.720   2.532  0.6281  0.4180 -0.6849
    2PMMA  HC48  496   1.809   1.592   2.601  1.1087 -0.2714 -0.1802
    2PMMA  HC49  497   2.054   1.629   2.669 -1.4522 -0.4711  0.5537
    2PMMA  HC50  498   2.150   1.476   2.623  0.8023  1.1212  3.4017
    2PMMA  HC51  499   1.998   1.465   2.697 -2.8285  1.8104 -0.6152
    2PMMA  H152  500   1.926   1.220   2.193 -0.8639 -0.6050 -1.1066
    2PMMA  H153  501   1.760   1.276   2.212  2.4629  2.1503 -2.5928
    2PMMA  H154  502   1.831   1.175   2.341  0.5936 -2.0369 -1.9229
    2PMMA  HC55  503   2.027   1.569   2.277 -0.7299 -1.2801 -0.1474
    2PMMA  HC56  504   2.066   1.689   2.377 -0.2157 -0.7751 -1.4500
    2PMMA  HC57  505   2.349   1.363   2.363  0.0701  0.9502  1.0671
    2PMMA  HC58  506   2.200   1.351   2.451  2.2749 -0.1923  0.2830
    2PMMA  HC59  507   2.196   1.342   2.274  0.0214  1.2420 -0.9972
    2PMMA  H160  508   2.565   1.513   2.653 -1.4390  0.1633  2.8690
    2PMMA  H161  509   2.443   1.630   2.715  0.0014  0.0060 -0.0724
    2PMMA  H162  510   2.547   1.671   2.573  2.1170 -1.6863 -1.1279
    2PMMA  HC63  511   2.203   1.562   2.154 -0.2567 -2.6165  1.9907
    2PMMA  HC64  512   2.298   1.695   2.217  0.9792 -0.1334 -0.9652
    2PMMA  HC65  513   2.371   1.547   2.174 -0.3811  0.8610 -2.8797
    3DMF     C1  514   1.779   0.854   1.159  0.0713  0.2100 -0.3184
    3DMF     N1  515   1.921   0.831   1.185 -0.4357 -0.1077  0.2622
    3DMF     C2  516   2.021   0.913   1.111 -0.4599 -0.6991 -0.1394
    3DMF     C3  517   1.967   0.729   1.271 -0.4423 -0.6470 -0.3556
    3DMF     O1  518   1.893   0.653   1.329  0.8518  0.2652 -0.2343
    3DMF     H1  519   1.740   0.916   1.240  0.3015 -1.3088  0.9900
    3DMF     H2  520   1.720   0.761   1.156 -2.0298  1.5501 -1.7628
    3DMF     H3  521   1.773   0.913   1.067  1.2205  1.2509  0.2733
    3DMF     H4  522   2.122   0.885   1.142 -0.7137 -1.7650 -0.2861
    3DMF     H5  523   2.012   1.022   1.126 -0.7580 -0.8482  0.8528
    3DMF     H6  524   2.015   0.897   1.003  0.2999  1.9950 -0.6252
    3DMF     H7  525   2.076   0.733   1.287 -0.8171  1.0780  2.1104
    4DMF     C1  526   2.472   0.456   0.220 -0.2514  0.4223 -0.1769
    4DMF     N1  527   2.371   0.412   0.320 -0.0850  0.5663 -0.0697
    4DMF     C2  528   2.343   0.503   0.427  0.2654 -0.3730  0.7281
    4DMF     C3  529   2.278   0.308   0.294 -0.2898  0.0380  0.1585
    4DMF     O1  530   2.295   0.226   0.203  0.6870 -0.4460 -0.0769
    4DMF     H1  531   2.441   0.424   0.120 -1.7430  0.7406  0.1637
    4DMF     H2  532   2.572   0.412   0.233 -0.6332 -0.6380 -0.7802
    4DMF     H3  533   2.484   0.565   0.226  1.0234  0.2026  1.6391
    4DMF     H4  534   2.241   0.541   0.415 -0.8605 -3.0317  1.4071
    4DMF     H5  535   2.416   0.584   0.439 -0.0351  0.1089 -0.6222
    4DMF     H6  536   2.343   0.438   0.515 -0.8684 -0.3538  0.7432
    4DMF     H7  537   2.188   0.314   0.359  0.2376 -0.1641  0.9193
    5DMF     C1  538   0.208   1.666   3.495 -0.5354 -0.1827  1.1619
    5DMF     N1  539   0.070   1.668   3.546  0.1318  0.0298 -0.5504
    5DMF     C2  540   0.039   1.591   3.660  0.0293 -0.1904 -0.6919
    5DMF     C3  541  -0.032   1.694   3.460 -0.0611  0.0215  0.4032
    5DMF     O1  542  -0.021   1.738   3.343 -0.1354 -0.0733 -0.5428
    5DMF     H1  543   0.204   1.612   3.399 -2.6079 -0.2158  1.2440
    5DMF     H2  544   0.279   1.623   3.566  0.9289 -0.6086 -0.5092
    5DMF     H3  545   0.236   1.771   3.479 -2.5144  0.1465 -0.3511
    5DMF     H4  546  -0.057   1.619   3.707 -0.2881 -1.9862 -0.2116
    5DMF     H5  547   0.109   1.614   3.741 -0.4385 -0.6596 -0.1423
    5DMF     H6  548   0.030   1.485   3.632 -1.0356 -0.1827 -0.4012
    5DMF     H7  549  -0.128   1.687   3.514  0.2264 -1.7149  0.7083
    6DMF     C1  550   1.157   0.382   0.689  0.1436 -0.0024 -0.4948
    6DMF     N1  551   1.227   0.355   0.566 -0.0149 -0.3451  0.2697
    6DMF     C2  552   1.163   0.273   0.459  0.1024  0.4267 -0.1491
    6DMF     C3  553   1.361   0.398   0.551 -0.0711 -0.2576  0.5415
    6DMF     O1  554   1.411   0.468   0.640 -0.1162 -0.3619  0.3197
    6DMF     H1  555   1.052   0.350   0.691  0.6031 -1.4983  2.8130
    6DMF     H2  556   1.167   0.490   0.708  0.0361  0.1957 -1.5235
    6DMF     H3  557   1.197   0.333   0.779 -2.1387 -1.6568 -0.3117
    6DMF     H4  558   1.160   0.329   0.365 -1.1918  3.1414  1.4619
    6DMF     H5  559   1.062   0.239   0.483  0.2610 -0.1578 -0.2894
    6DMF     H6  560   1.219   0.178   0.453 -0.8813 -0.2637  1.2121
    6DMF     H7  561   1.421   0.367   0.463  0.8223 -3.5982  2.2496
    7DMF     C1  562   3.296   2.980   0.288  0.5639 -0.1293 -0.5387
    7DMF     N1  563   3.417   2.961   0.199 -0.4156 -0.0809  0.0809
    7DMF     C2  564   3.546   2.941   0.263 -0.2683 -0.4809  0.8058
    7DMF     C3  565   3.407   2.988   0.056 -0.4669  0.8527  0.0375
    7DMF     O1  566   3.307   3.021  -0.001  0.0713 -0.1910  0.3383
    7DMF     H1  567   3.282   2.884   0.340  0.5787 -0.9756 -2.0814
    7DMF     H2  568   3.204   2.999   0.233 -0.7599 -3.0965  0.5352
    7DMF     H3  569   3.300   3.061   0.362 -0.0020 -1.0330  0.4838
    7DMF     H4  570   3.618   2.899   0.192  0.4352  1.5475  0.2875
    7DMF     H5  571   3.539   2.867   0.344 -2.2416  0.2954  1.3808
    7DMF     H6  572   3.581   3.034   0.311  0.4808  0.1524 -0.9155
    7DMF     H7  573   3.508   2.984   0.012 -0.9239  1.3816 -1.0668
    8DMF     C1  574   0.700   1.141   0.378 -0.1624  0.3962 -0.1529
    8DMF     N1  575   0.611   1.028   0.389  0.3244 -0.6846 -0.4782
    8DMF     C2  576   0.610   0.944   0.513  0.2578  0.0576  0.3175
    8DMF     C3  577   0.515   1.008   0.291  1.0115 -1.2232 -0.0795
    8DMF     O1  578   0.490   1.087   0.196 -0.2588  0.4258 -0.0057
    8DMF     H1  579   0.657   1.236   0.413  0.2255  1.7783 -3.3204
    8DMF     H2  580   0.719   1.179   0.277  1.0063 -0.9379 -0.4594
    8DMF     H3  581   0.792   1.121   0.434 -1.3089 -1.6013  1.0689
    8DMF     H4  582   0.711   0.902   0.525 -0.1525 -0.4719  2.1580
    8DMF     H5  583   0.526   0.875   0.499 -0.7894  0.4171  4.3162
    8DMF     H6  584   0.597   1.003   0.605  0.7916 -0.4261  0.7144
    8DMF     H7  585   0.461   0.912   0.301 -0.9927  0.1546  3.2281
    9DMF     C1  586   0.352   2.919   1.162 -0.1382 -0.0329  0.0184
    9DMF     N1  587   0.216   2.954   1.109  0.4199  0.0135 -0.6628
    9DMF     C2  588   0.144   2.850   1.027  0.6658  0.3720 -0.9608
    9DMF     C3  589   0.149   3.073   1.147 -0.1990  0.1083 -1.1089
    9DMF     O1  590   0.198   3.149   1.234 -0.1632 -0.2387 -0.3008
    9DMF     H1  591   0.410   3.011   1.145  0.2207  0.2874  2.7889
    9DMF     H2  592   0.388   2.833   1.104  0.1586  0.6895 -0.8839
    9DMF     H3  593   0.340   2.911   1.270 -2.3450 -0.8305 -0.2600
    9DMF     H4  594   0.038   2.877   1.025  0.3787 -0.7044 -0.7912
    9DMF     H5  595   0.156   2.757   1.084  0.6283 -0.1456 -1.7756
    9DMF     H6  596   0.192   2.834   0.929  0.6738 -1.5299 -0.6767
    9DMF     H7  597   0.052   3.086   1.097 -0.8216  1.0928  0.3202
   10DMF     C1  598   0.641   2.586   3.607 -0.3032 -0.2655  0.1339
   10DMF     N1  599   0.548   2.610   3.716 -0.2321 -0.1840 -0.4011
   10DMF     C2  600   0.467   2.500   3.766  0.4157  0.0633 -0.4191
   10DMF     C3  601   0.544   2.739   3.778  0.3331  0.1298 -0.2736
   10DMF     O1  602   0.601   2.841   3.742  0.5622 -0.7888  0.2429
   10DMF     H1  603   0.603   2.639   3.518  0.5619  2.8316  1.5295
   10DMF     H2  604   0.652   2.479   3.588  2.9831 -0.2469  1.7019
   10DMF     H3  605   0.738   2.625   3.640 -0.0255 -1.8207  1.1928
   10DMF     H4  606   0.530   2.419   3.804 -1.4643 -1.7837 -1.1554
   10DMF     H5  607   0.396   2.464   3.690 -1.0810  2.1747 -0.0830
   10DMF     H6  608   0.412   2.517   3.860 -0.0337  0.5240 -0.7603
   10DMF     H7  609   0.471   2.744   3.861  1.4323 -0.5454  0.7448
   11DMF     C1  610   3.205   1.155   0.953  0.0520  0.0147 -0.0776
   11DMF     N1  611   3.115   1.264   0.907  0.8858  0.9817  0.4931
   11DMF     C2  612   2.976   1.255   0.957  0.1754  0.3741 -0.4089
   11DMF     C3  613   3.152   1.358   0.809 -0.2883  0.5453  0.4558
   11DMF     O1  614   3.269   1.364   0.767  0.2965 -0.3116 -0.1675
   11DMF     H1  615   3.279   1.204   1.017 -0.5722  2.0618 -0.8672
   11DMF     H2  616   3.261   1.108   0.871 -1.6331 -0.0051 -1.2461
   11DMF     H3  617   3.144   1.090   1.017  1.1776 -0.8067  0.1693
   11DMF     H4  618   2.930   1.163   0.919  0.5298  0.6105 -1.4183
   11DMF     H5  619   2.912   1.339   0.926 -0.8562  0.0630  0.8299
   11DMF     H6  620   2.966   1.258   1.067 -0.4180  3.3631 -0.5068
   11DMF     H7  621   3.073   1.430   0.779  1.8282  1.7395 -2.5429
   12DMF     C1  622   1.715   1.125   1.591 -0.2472 -0.2389  0.3895
   12DMF     N1  623   1.682   0.986   1.558  0.2002  0.2754  0.7868
   12DMF     C2  624   1.796   0.895   1.546  0.5003  0.5961  0.8570
   12DMF     C3  625   1.558   0.947   1.520  0.4425  0.6028 -0.2356
   12DMF     O1  626   1.459   1.015   1.542  0.4572  0.7269 -0.1165
   12DMF     H1  627   1.630   1.182   1.630  0.1327 -0.6382  1.8456
   12DMF     H2  628   1.760   1.172   1.502 -1.5060 -1.2595 -0.8084
   12DMF     H3  629   1.798   1.120   1.663 -0.7374 -1.0096  0.9101
   12DMF     H4  630   1.844   0.896   1.645  0.3829 -0.9632  0.9518
   12DMF     H5  631   1.853   0.934   1.460 -1.5756 -0.4778 -1.0608
   12DMF     H6  632   1.764   0.793   1.520  1.8293  0.6540 -1.1025
   12DMF     H7  633   1.569   0.848   1.473  0.4579  0.2740  0.4488
   13DMF     C1  634   2.247   2.782   0.247 -0.2480  0.1328 -0.6426
   13DMF     N1  635   2.350   2.828   0.336 -0.8803 -0.1734 -0.1241
   13DMF     C2  636   2.306   2.874   0.458  0.0506 -0.1330  0.0834
   13DMF     C3  637   2.485   2.858   0.284  0.2134 -0.3617  0.1623
   13DMF     O1  638   2.528   2.817   0.180  0.0387  0.5038 -0.6822
   13DMF     H1  639   2.230   2.674   0.256 -1.6594  0.4717  1.0334
   13DMF     H2  640   2.284   2.808   0.147  1.5796  1.8966  0.4509
   13DMF     H3  641   2.147   2.824   0.259 -0.4349 -0.5695  0.3434
   13DMF     H4  642   2.222   2.821   0.503  0.2614 -0.9484 -0.4771
   13DMF     H5  643   2.278   2.980   0.466  1.9559  0.3825  0.2933
   13DMF     H6  644   2.393   2.862   0.524 -0.8641  0.1623  1.3391
   13DMF     H7  645   2.536   2.926   0.354 -0.9361  2.3259 -1.5373
   14DMF     C1  646   0.556   1.304   1.576 -0.2273  0.0895  0.6362
   14DMF     N1  647   0.587   1.166   1.586 -0.6642  0.4689 -0.6494
   14DMF     C2  648   0.723   1.126   1.544  0.1925  0.1105 -0.4966
   14DMF     C3  649   0.484   1.071   1.588 -0.4119  0.5977  0.0399
   14DMF     O1  650   0.369   1.099   1.581 -0.3144 -0.0176  0.4659
   14DMF     H1  651   0.649   1.361   1.581 -0.6857  1.5500 -4.4157
   14DMF     H2  652   0.485   1.343   1.650 -2.7413 -1.0356 -1.0935
   14DMF     H3  653   0.503   1.320   1.481 -2.0393  0.0752  1.6188
   14DMF     H4  654   0.769   1.207   1.486 -1.3902 -1.3211 -3.8679
   14DMF     H5  655   0.716   1.035   1.483  1.4262  0.1295 -0.6780
   14DMF     H6  656   0.787   1.084   1.624 -0.2900 -0.9196 -0.6436
   14DMF     H7  657   0.523   0.969   1.603 -0.3931  0.8517  1.8054
   15DMF     C1  658   2.703   3.261   0.611  0.1152 -0.4523  0.3425
   15DMF     N1  659   2.750   3.307   0.474 -1.0576  0.9804 -0.4932
   15DMF     C2  660   2.876   3.391   0.465  0.0577  0.2947  0.0632
   15DMF     C3  661   2.686   3.256   0.365  0.0886  0.4342  0.1848
   15DMF     O1  662   2.578   3.192   0.371  0.3906  0.1079 -0.2607
   15DMF     H1  663   2.631   3.339   0.638  1.1942  0.3931  0.8515
   15DMF     H2  664   2.789   3.241   0.677 -0.8614 -3.2951  0.8197
   15DMF     H3  665   2.641   3.171   0.601 -0.5093  0.1868 -1.6469
   15DMF     H4  666   2.911   3.425   0.563 -0.3025  1.2014 -0.1189
   15DMF     H5  667   2.844   3.480   0.409 -0.4723 -0.9757 -1.7195
   15DMF     H6  668   2.963   3.341   0.421  1.0122  0.4453  1.7504
   15DMF     H7  669   2.738   3.297   0.276  0.4220  0.6850  0.4980
   16DMF     C1  670   3.182   2.196   3.773  0.2771 -0.4649 -0.3330
   16DMF     N1  671   3.241   2.073   3.742 -0.3975  0.1973 -0.1245
   16DMF     C2  672   3.153   1.952   3.754 -0.8210 -0.6668 -0.3039
   16DMF     C3  673   3.367   2.056   3.680 -0.1238 -0.2518  0.4271
   16DMF     O1  674   3.442   2.151   3.655  0.3113 -0.4135 -0.4631
   16DMF     H1  675   3.075   2.185   3.794  0.7049  1.5096  3.2205
   16DMF     H2  676   3.186   2.267   3.689  3.1462  0.2395  0.3345
   16DMF     H3  677   3.235   2.241   3.858 -0.0703 -1.1389  0.2449
   16DMF     H4  678   3.186   1.870   3.689 -1.7689 -1.3953  0.1262
   16DMF     H5  679   3.049   1.973   3.728 -0.4236 -0.1641 -1.4998
   16DMF     H6  680   3.139   1.917   3.857  0.1354 -1.6565 -0.4970
   16DMF     H7  681   3.383   1.951   3.648 -3.6234 -0.8363  0.3245
   17DMF     C1  682   0.240   0.452   0.892  0.2857 -0.2996 -0.0487
   17DMF     N1  683   0.331   0.510   0.791  0.4075 -0.2511  0.2784
   17DMF     C2  684   0.430   0.424   0.732 -0.3904  0.6808 -0.4926
   17DMF     C3  685   0.323   0.654   0.765  0.2804 -0.5122  0.5927
   17DMF     O1  686   0.242   0.728   0.817  0.0010  0.3011 -0.6793
   17DMF     H1  687   0.287   0.440   0.991 -0.5272  2.7013  0.7479
   17DMF     H2  688   0.206   0.356   0.852  0.9221  0.7161 -3.2106
   17DMF     H3  689   0.151   0.514   0.909 -0.5218 -1.5188  0.1721
   17DMF     H4  690   0.383   0.327   0.708  0.4548  0.7111 -2.3880
   17DMF     H5  691   0.511   0.407   0.804  0.2638 -0.2566 -1.4289
   17DMF     H6  692   0.472   0.470   0.642 -0.7601  2.3398  0.1718
   17DMF     H7  693   0.390   0.682   0.682 -0.7955  2.0479  0.5576
   18DMF     C1  694   2.828   3.064   1.543  0.4683 -0.2856  0.3895
   18DMF     N1  695   2.860   3.146   1.419 -0.0350 -0.4286 -0.9864
   18DMF     C2  696   2.848   3.074   1.297  0.2790  0.2351 -0.0155
   18DMF     C3  697   2.888   3.285   1.429  0.4519 -0.1155  0.0542
   18DMF     O1  698   2.880   3.349   1.533  0.4905 -0.7915  1.1422
   18DMF     H1  699   2.727   3.083   1.579  0.9729  3.7562 -0.0649
   18DMF     H2  700   2.889   3.101   1.626 -0.7612 -0.5912  1.4312
   18DMF     H3  701   2.836   2.956   1.531  0.1020 -0.7242  3.6588
   18DMF     H4  702   2.843   2.968   1.324 -2.6204  0.4423  0.4131
   18DMF     H5  703   2.928   3.098   1.226 -1.1149  0.9423 -1.3935
   18DMF     H6  704   2.757   3.101   1.241  1.1289  2.1003 -0.5460
   18DMF     H7  705   2.880   3.334   1.331 -1.7616 -0.1986  0.1748
   19DMF     C1  706   2.784   2.598   1.535  0.1761 -0.3248  0.4327
   19DMF     N1  707   2.642   2.626   1.498 -0.0390 -0.0452  0.6584
   19DMF     C2  708   2.582   2.767   1.517 -0.4450 -0.5905 -0.3438
   19DMF     C3  709   2.556   2.533   1.450 -0.7202  0.9438  0.3134
   19DMF     O1  710   2.598   2.425   1.433 -0.2386  0.2375 -0.2135
   19DMF     H1  711   2.801   2.496   1.572  0.7872 -0.1634  0.5872
   19DMF     H2  712   2.837   2.667   1.602  2.1750  1.0795 -2.5271
   19DMF     H3  713   2.849   2.601   1.448 -3.2283  1.2414 -2.1893
   19DMF     H4  714   2.492   2.763   1.580  0.2319 -0.2062  0.6659
   19DMF     H5  715   2.568   2.806   1.416 -0.5807 -0.6382 -0.3433
   19DMF     H6  716   2.661   2.830   1.560 -0.2817 -2.1442  1.7247
   19DMF     H7  717   2.453   2.566   1.425 -0.4565  1.0209 -0.6839
   20DMF     C1  718   0.610   1.652   1.533  0.0427  0.5272 -0.0925
   20DMF     N1  719   0.722   1.730   1.472  0.0330  0.0600 -0.3030
   20DMF     C2  720   0.701   1.816   1.364  0.0951 -0.1682 -0.5505
   20DMF     C3  721   0.853   1.688   1.502 -0.4064  0.2820 -0.0850
   20DMF     O1  722   0.883   1.606   1.590 -0.2035 -0.3681  0.4099
   20DMF     H1  723   0.645   1.590   1.616 -1.1455 -1.6478 -1.1664
   20DMF     H2  724   0.574   1.587   1.452  0.6872 -0.4871  0.4184
   20DMF     H3  725   0.529   1.719   1.564 -0.9352 -1.5812  2.0658
   20DMF     H4  726   0.655   1.904   1.412  0.2270  0.2325 -1.1464
   20DMF     H5  727   0.633   1.769   1.292  0.4938 -0.5225 -0.6980
   20DMF     H6  728   0.797   1.844   1.317  1.2417  1.0205  2.3407
   20DMF     H7  729   0.933   1.736   1.442 -0.9140  2.0566  0.6456
   21DMF     C1  730   2.657   0.988   0.862  0.0064 -0.0056 -0.0554
   21DMF     N1  731   2.524   0.949   0.890  1.0696 -0.2785  0.2675
   21DMF     C2  732   2.493   0.874   1.014  0.5276 -0.0795  0.7545
   21DMF     C3  733   2.433   0.947   0.782  0.4804  0.7863  0.4729
   21DMF     O1  734   2.462   0.967   0.664 -0.2084  0.0105 -0.5079
   21DMF     H1  735   2.716   0.994   0.955 -0.2082 -0.3384  0.1044
   21DMF     H2  736   2.653   1.089   0.819  0.9535 -1.5799 -4.0209
   21DMF     H3  737   2.702   0.907   0.803 -0.4370  0.0900 -0.5221
   21DMF     H4  738   2.558   0.906   1.097  1.8194  0.1120 -0.3259
   21DMF     H5  739   2.505   0.766   0.995 -1.5094 -0.2002  0.0086
   21DMF     H6  740   2.397   0.903   1.059  1.3301  0.7192  1.9758
   21DMF     H7  741   2.334   0.913   0.818 -0.0177 -0.1208 -1.6800
   22DMF     C1  742   3.398   0.671   0.334 -0.2034 -0.6164  0.1429
   22DMF     N1  743   3.511   0.745   0.398 -0.1665 -0.0574  0.6820
   22DMF     C2  744   3.528   0.894   0.373  0.7448  0.4349 -0.3290
   22DMF     C3  745   3.611   0.664   0.459  0.0658 -0.6417 -0.1518
   22DMF     O1  746   3.593   0.542   0.485 -0.2789  0.3261  0.4015
   22DMF     H1  747   3.449   0.597   0.272  0.1372  0.2364 -0.6020
   22DMF     H2  748   3.342   0.743   0.273 -0.5354 -1.1824 -0.2212
   22DMF     H3  749   3.329   0.624   0.405 -1.7445  1.6134  0.1568
   22DMF     H4  750   3.502   0.921   0.271 -0.4164 -0.8426 -0.3913
   22DMF     H5  751   3.631   0.929   0.390  0.5751  1.0725 -0.6472
   22DMF     H6  752   3.482   0.951   0.455  2.6790 -0.3575  1.3844
   22DMF     H7  753   3.701   0.720   0.490 -1.3702  1.4724  0.3653
   23DMF     C1  754   0.998   1.362   1.263  0.4185  0.2389  0.1340
   23DMF     N1  755   1.087   1.469   1.209 -0.3091  0.3014  0.0064
   23DMF     C2  756   1.227   1.432   1.185 -0.1785 -0.2581  0.6592
   23DMF     C3  757   1.039   1.603   1.200 -0.9293  1.3232 -0.2771
   23DMF     O1  758   0.920   1.639   1.222 -0.0655  0.0996  0.1738
   23DMF     H1  759   1.014   1.273   1.201 -0.6604 -0.0975  0.3257
   23DMF     H2  760   0.894   1.396   1.259 -0.0676 -1.3017 -0.6931
   23DMF     H3  761   1.013   1.346   1.371 -2.4205 -3.3507  0.0835
   23DMF     H4  762   1.274   1.393   1.276 -4.2902 -1.9357  2.2149
   23DMF     H5  763   1.287   1.521   1.162  1.1183 -1.6119 -1.3415
   23DMF     H6  764   1.239   1.358   1.105  0.3406  0.3196  0.1937
   23DMF     H7  765   1.125   1.672   1.193  0.0561 -0.0535 -2.1985
   24DMF     C1  766   1.901   2.383   0.628  0.3095  0.5372  0.0240
   24DMF     N1  767   2.035   2.438   0.581 -0.2418  0.1007 -0.0981
   24DMF     C2  768   2.150   2.378   0.646  0.3490  0.8012  0.0514
   24DMF     C3  769   2.052   2.552   0.507 -0.4077 -0.5454  0.7486
   24DMF     O1  770   1.957   2.614   0.454  0.2938  0.0703 -0.4631
   24DMF     H1  771   1.892   2.273   0.633 -1.8068  0.7638  3.0558
   24DMF     H2  772   1.827   2.423   0.558  1.0462  3.6608  0.9510
   24DMF     H3  773   1.883   2.412   0.733  0.9890  3.7764 -0.7108
   24DMF     H4  774   2.160   2.276   0.609 -1.7705  0.5128  0.2056
   24DMF     H5  775   2.135   2.376   0.755  1.4638  1.9563  0.2465
   24DMF     H6  776   2.246   2.427   0.622  1.2088 -1.0495 -0.3589
   24DMF     H7  777   2.159   2.573   0.488 -0.6165 -0.2044 -0.0959
   25DMF     C1  778   2.380   1.114   0.185 -0.6070  0.7549 -0.0117
   25DMF     N1  779   2.290   1.133   0.073 -0.2027  0.9487  1.1964
   25DMF     C2  780   2.361   1.162  -0.056  0.2059  0.0213 -0.1048
   25DMF     C3  781   2.151   1.104   0.081  0.1740 -0.5545 -0.2007
   25DMF     O1  782   2.095   1.072   0.189  0.0411 -0.4282 -0.0609
   25DMF     H1  783   2.324   1.120   0.280 -1.3353 -0.0278 -0.3784
   25DMF     H2  784   2.456   1.193   0.178  0.0154 -0.0100 -2.3597
   25DMF     H3  785   2.424   1.013   0.183 -2.0492  0.1029  0.4864
   25DMF     H4  786   2.323   1.105  -0.142  1.5425 -0.6156 -0.2857
   25DMF     H5  787   2.466   1.131  -0.050  0.8558  2.4270  1.7002
   25DMF     H6  788   2.368   1.270  -0.077 -1.1624  0.6611  2.4568
   25DMF     H7  789   2.101   1.108  -0.018 -0.9165  0.0875  0.3603
   26DMF     C1  790   2.686   0.353   1.410 -0.4280  0.0269 -0.0572
   26DMF     N1  791   2.729   0.262   1.515  0.1667 -0.8401  0.3082
   26DMF     C2  792   2.873   0.258   1.551 -0.0173  0.3377  0.5558
   26DMF     C3  793   2.644   0.169   1.567  0.2341  0.2684 -0.3183
   26DMF     O1  794   2.528   0.150   1.539 -0.1898  0.2477  0.4568
   26DMF     H1  795   2.581   0.385   1.415 -0.5252  0.0520 -1.7526
   26DMF     H2  796   2.698   0.301   1.314 -0.6051  0.0916 -0.1153
   26DMF     H3  797   2.752   0.441   1.417  0.7738 -0.8263 -0.4883
   26DMF     H4  798   2.896   0.258   1.658 -0.7967 -0.7304  0.7281
   26DMF     H5  799   2.921   0.342   1.499  2.2201 -0.1453  1.8035
   26DMF     H6  800   2.906   0.164   1.506 -0.7515 -0.1376  0.9988
   26DMF     H7  801   2.699   0.103   1.637  0.9807 -0.3872 -1.5018
   27DMF     C1  802   3.059   1.573   1.138 -0.5419  0.3359  0.0280
   27DMF     N1  803   2.918   1.575   1.090 -0.0646  0.3795 -0.0845
   27DMF     C2  804   2.893   1.619   0.953  0.4161 -0.1275 -0.0058
   27DMF     C3  805   2.820   1.508   1.165 -0.4069 -0.7721 -0.1158
   27DMF     O1  806   2.844   1.457   1.275 -0.5992  0.2501 -0.0875
   27DMF     H1  807   3.108   1.480   1.108 -0.6475 -0.1785  1.4574
   27DMF     H2  808   3.054   1.564   1.247  3.2112 -1.0299  0.1454
   27DMF     H3  809   3.114   1.661   1.101  0.8765  0.2429  1.8530
   27DMF     H4  810   2.976   1.584   0.890  0.6841 -2.0278  1.3432
   27DMF     H5  811   2.893   1.728   0.941 -0.0264 -0.1300 -0.0342
   27DMF     H6  812   2.798   1.571   0.925  0.7458 -0.4232 -0.6441
   27DMF     H7  813   2.717   1.513   1.124 -0.5642  0.1470  0.3777
   28DMF     C1  814   0.894   0.420   1.245  0.2245  0.5684 -0.0680
   28DMF     N1  815   0.787   0.433   1.149  0.1783  0.3001 -0.2111
   28DMF     C2  816   0.660   0.479   1.211 -0.4318  0.0044 -0.3380
   28DMF     C3  817   0.807   0.416   1.015  0.0117 -0.0208 -0.3714
   28DMF     O1  818   0.913   0.396   0.957  0.6165  0.2201 -0.2358
   28DMF     H1  819   0.956   0.509   1.230  1.6028 -0.7424 -2.4575
   28DMF     H2  820   0.960   0.336   1.221 -2.5276 -1.2352 -1.6862
   28DMF     H3  821   0.853   0.408   1.346 -0.9390 -0.8281 -0.6813
   28DMF     H4  822   0.596   0.533   1.140 -1.8012  0.4286  1.1784
   28DMF     H5  823   0.679   0.556   1.288 -0.7177 -2.1157  1.9001
   28DMF     H6  824   0.606   0.402   1.267 -2.3409  0.0139 -2.1278
   28DMF     H7  825   0.710   0.420   0.962  0.4787 -1.0520 -1.3162
   29DMF     C1  826   2.385   1.738   1.557 -0.2084  0.3772  0.2181
   29DMF     N1  827   2.509   1.675   1.503 -0.0123  0.8020  0.5335
   29DMF     C2  828   2.559   1.544   1.551 -0.1809  0.4315 -0.7913
   29DMF     C3  829   2.554   1.727   1.382  0.1950 -0.3786  0.2910
   29DMF     O1  830   2.479   1.799   1.315  0.1784  0.3822  0.7629
   29DMF     H1  831   2.333   1.673   1.628 -0.7587 -0.0241 -0.5513
   29DMF     H2  832   2.318   1.748   1.470  0.9624 -0.7380 -0.8335
   29DMF     H3  833   2.409   1.842   1.582 -2.6486  0.6420  1.5629
   29DMF     H4  834   2.474   1.500   1.605  1.4735  0.4523  1.9253
   29DMF     H5  835   2.656   1.557   1.601  0.5467 -0.9510 -1.8192
   29DMF     H6  836   2.564   1.480   1.462 -4.0038  1.2493 -1.6739
   29DMF     H7  837   2.644   1.676   1.344 -0.6764 -2.4077  0.8414
   30DMF     C1  838   3.206   3.142   1.479 -0.9952 -1.1049  0.3279
   30DMF     N1  839   3.178   3.002   1.444  0.4097  0.1725  0.1823
   30DMF     C2  840   3.152   2.907   1.552 -0.4197 -0.0816  0.4249
   30DMF     C3  841   3.197   2.961   1.311  0.0969  1.0124 -0.0403
   30DMF     O1  842   3.215   3.041   1.220 -0.2696 -0.9984  0.1701
   30DMF     H1  843   3.306   3.176   1.452 -1.9811  0.5508 -1.4061
   30DMF     H2  844   3.211   3.148   1.588  0.4281 -1.7596  0.3077
   30DMF     H3  845   3.132   3.211   1.434 -0.5323  0.2326  1.5635
   30DMF     H4  846   3.101   2.954   1.636 -1.8039 -1.8930  0.6213
   30DMF     H5  847   3.253   2.874   1.581 -0.6942  1.4721  3.2949
   30DMF     H6  848   3.079   2.832   1.522 -2.2024  1.5112  0.6974
   30DMF     H7  849   3.201   2.852   1.295 -0.2673  1.0388 -0.3316
   31DMF     C1  850   2.544   0.201   3.743  0.1447  0.0546 -0.8574
   31DMF     N1  851   2.668   0.191   3.816  0.5906 -0.0546 -0.2164
   31DMF     C2  852   2.682   0.084   3.912 -0.4724  0.2638 -0.6635
   31DMF     C3  853   2.755   0.303   3.813 -0.0158  0.4974  0.0162
   31DMF     O1  854   2.733   0.407   3.747  0.2893  0.0225  0.1769
   31DMF     H1  855   2.539   0.297   3.689  0.0121  0.4601 -0.1257
   31DMF     H2  856   2.454   0.160   3.791  0.0929  2.2114  0.9682
   31DMF     H3  857   2.556   0.128   3.662 -0.6915  0.2639 -1.1840
   31DMF     H4  858   2.624  -0.004   3.880  0.9480 -0.0886 -2.2890
   31DMF     H5  859   2.640   0.121   4.007  0.2233  2.7166 -1.2896
   31DMF     H6  860   2.790   0.073   3.925 -0.2363  0.3378 -2.4134
   31DMF     H7  861   2.850   0.295   3.869 -0.6442 -0.9655  0.8966
   32DMF     C1  862   2.055   1.160   0.526 -0.2151 -0.5135  0.1522
   32DMF     N1  863   1.951   1.136   0.622 -0.5047  0.9199  0.4121
   32DMF     C2  864   1.824   1.210   0.623  0.8179 -0.1277  0.1691
   32DMF     C3  865   1.979   1.068   0.749  0.8841 -0.2964  0.1053
   32DMF     O1  866   2.087   1.015   0.771 -0.3513  0.4452 -0.2934
   32DMF     H1  867   2.111   1.253   0.542 -1.3773  0.4318 -1.0508
   32DMF     H2  868   2.000   1.153   0.431  0.3605 -0.3384 -0.1943
   32DMF     H3  869   2.126   1.076   0.532 -0.4237 -0.7125 -0.1456
   32DMF     H4  870   1.816   1.279   0.707 -0.2162 -0.4620  0.3519
   32DMF     H5  871   1.731   1.152   0.632 -0.8189  1.7073 -3.7268
   32DMF     H6  872   1.809   1.265   0.530  1.0641  0.3667  0.4211
   32DMF     H7  873   1.896   1.084   0.820  0.0807  0.6700 -1.0163
   33DMF     C1  874   1.731   1.558   3.641  0.0953  0.7096 -0.3086
   33DMF     N1  875   1.768   1.520   3.781  0.8447  0.2551  0.0596
   33DMF     C2  876   1.791   1.381   3.799 -0.3302 -0.1332  0.2578
   33DMF     C3  877   1.755   1.608   3.887  0.7655 -1.4462 -0.2540
   33DMF     O1  878   1.722   1.725   3.872  0.2328 -0.3017 -0.3416
   33DMF     H1  879   1.733   1.466   3.581 -1.2350 -0.7049  1.7629
   33DMF     H2  880   1.791   1.639   3.596  1.0060 -0.0520 -0.4869
   33DMF     H3  881   1.625   1.585   3.646 -0.4937 -1.9266  3.0057
   33DMF     H4  882   1.697   1.339   3.835 -1.7074  1.7122 -1.1140
   33DMF     H5  883   1.855   1.356   3.885 -0.9510 -2.4065  0.0850
   33DMF     H6  884   1.834   1.332   3.711  0.8060 -2.5045  2.0516
   33DMF     H7  885   1.795   1.563   3.980  0.2757  1.4917  1.4462
   34DMF     C1  886   1.125   1.528   3.761  0.0482  0.5664  0.6506
   34DMF     N1  887   1.246   1.443   3.761  0.1095  0.2553  0.0352
   34DMF     C2  888   1.295   1.391   3.627 -0.1577  0.2523 -0.9470
   34DMF     C3  889   1.317   1.403   3.876 -0.1339  0.3297  0.2382
   34DMF     O1  890   1.277   1.430   3.989  0.0555  0.2057  0.1544
   34DMF     H1  891   1.115   1.578   3.858  1.1469  1.1372  0.4802
   34DMF     H2  892   1.042   1.463   3.728 -0.0824  0.5767  0.9571
   34DMF     H3  893   1.128   1.606   3.684 -0.2315  0.1574  0.2160
   34DMF     H4  894   1.217   1.412   3.553 -2.2510  0.5732  1.2862
   34DMF     H5  895   1.314   1.283   3.620  0.4124  0.2599  0.2390
   34DMF     H6  896   1.388   1.444   3.604  0.6388 -0.6971  0.0277
   34DMF     H7  897   1.413   1.352   3.858  1.1419  2.1444  1.6212
   35DMF     C1  898   0.451   2.198   0.239 -0.6065  0.1685 -0.0914
   35DMF     N1  899   0.409   2.140   0.373 -0.0809 -0.3397 -0.2553
   35DMF     C2  900   0.430   1.995   0.396  1.0290  0.3932 -0.3052
   35DMF     C3  901   0.368   2.226   0.471  0.6811 -0.8990  0.0418
   35DMF     O1  902   0.358   2.352   0.456 -0.5615 -0.1043  0.1902
   35DMF     H1  903   0.543   2.254   0.256  0.1008 -1.4160  1.4919
   35DMF     H2  904   0.380   2.271   0.199 -1.2400 -0.2049  0.3284
   35DMF     H3  905   0.477   2.130   0.157  3.3346 -2.0531  2.8311
   35DMF     H4  906   0.505   1.987   0.476  0.3349 -1.3825  0.1969
   35DMF     H5  907   0.465   1.959   0.299  0.1050  0.5190 -0.6908
   35DMF     H6  908   0.333   1.951   0.423  1.4257  1.1978  2.6367
   35DMF     H7  909   0.331   2.166   0.557 -1.5228 -2.0955 -1.6908
   36DMF     C1  910   0.697   2.479   1.528  0.0391 -0.1379  0.5940
   36DMF     N1  911   0.750   2.345   1.511 -0.2317 -0.2490 -0.0766
   36DMF     C2  912   0.664   2.240   1.466  0.2073 -0.7314 -0.1926
   36DMF     C3  913   0.884   2.323   1.535 -0.0326 -0.2119  0.0688
   36DMF     O1  914   0.965   2.406   1.570 -0.1822  0.0842  0.4174
   36DMF     H1  915   0.734   2.558   1.462 -1.3691  0.6356  0.7126
   36DMF     H2  916   0.711   2.507   1.633  2.0441  0.9476  0.0830
   36DMF     H3  917   0.591   2.477   1.500 -0.0272  0.6382  0.7743
   36DMF     H4  918   0.655   2.237   1.357  2.7210  0.6671 -0.4748
   36DMF     H5  919   0.566   2.251   1.514  0.5021  1.8683 -0.1307
   36DMF     H6  920   0.704   2.143   1.500 -0.4914 -0.9890 -0.1052
   36DMF     H7  921   0.910   2.218   1.510  1.2214 -0.3097  1.7239
   37DMF     C1  922   1.599   0.455   1.129  0.4735  0.4586 -0.1779
   37DMF     N1  923   1.488   0.479   1.033 -0.1042  0.1199  0.8183
   37DMF     C2  924   1.376   0.379   1.016 -0.0556 -0.2607 -0.0495
   37DMF     C3  925   1.506   0.578   0.925 -0.1473  0.5523 -0.5288
   37DMF     O1  926   1.612   0.635   0.909  0.2213  0.2480  0.4683
   37DMF     H1  927   1.575   0.357   1.172 -1.6227  0.1544 -1.9303
   37DMF     H2  928   1.605   0.540   1.198  1.2058  1.9579 -2.0435
   37DMF     H3  929   1.692   0.447   1.072 -0.3609 -1.6523 -1.2837
   37DMF     H4  930   1.375   0.310   1.101  1.8648  0.8576  0.9313
   37DMF     H5  931   1.372   0.337   0.915 -1.1381  1.0353 -0.5632
   37DMF     H6  932   1.276   0.422   1.033 -0.7030 -1.4686 -0.7587
   37DMF     H7  933   1.413   0.601   0.870 -1.0319 -1.3975  0.1079
   38DMF     C1  934   2.048   2.067   3.680 -0.4167 -0.2942  0.3518
   38DMF     N1  935   1.941   2.024   3.758  0.5035  0.3685  0.1356
   38DMF     C2  936   1.970   2.026   3.903  0.1816  1.1302  0.4881
   38DMF     C3  937   1.828   1.967   3.703  0.0625  0.6393 -0.1133
   38DMF     O1  938   1.815   1.948   3.581 -0.0020  0.0485 -0.3192
   38DMF     H1  939   2.140   2.049   3.737  0.9027 -1.8066 -2.1475
   38DMF     H2  940   2.036   2.174   3.658 -3.4365 -0.7130 -0.1892
   38DMF     H3  941   2.055   2.012   3.585  1.1391  0.8826 -0.2476
   38DMF     H4  942   1.930   1.933   3.945 -1.0955  1.7763  0.7488
   38DMF     H5  943   1.907   2.101   3.953  0.5475  1.9569 -0.2751
   38DMF     H6  944   2.072   2.038   3.939  0.4556  0.5739 -0.0900
   38DMF     H7  945   1.758   1.935   3.782  0.5298  1.8977  0.8383
   39DMF     C1  946   1.426   0.458   1.508 -0.2672  0.1848  0.0607
   39DMF     N1  947   1.305   0.384   1.480  0.1107 -0.0691 -0.1680
   39DMF     C2  948   1.267   0.283   1.569  0.1735  0.6264 -0.1618
   39DMF     C3  949   1.244   0.407   1.359  0.2521  0.6325 -0.0366
   39DMF     O1  950   1.279   0.490   1.272  0.1657 -0.1071  0.7438
   39DMF     H1  951   1.501   0.394   1.558 -0.9632  0.3171  1.2952
   39DMF     H2  952   1.405   0.537   1.581  0.1691 -1.5420  2.1197
   39DMF     H3  953   1.470   0.500   1.417  2.2309 -0.1890  1.0415
   39DMF     H4  954   1.352   0.246   1.628 -0.3484  0.5900  0.5731
   39DMF     H5  955   1.230   0.191   1.523 -0.6480  0.9102 -0.0746
   39DMF     H6  956   1.189   0.321   1.635  0.3776 -0.5387  0.7588
   39DMF     H7  957   1.167   0.329   1.342  0.6788 -0.1020  1.3622
   40DMF     C1  958   1.470   1.949   0.980  0.9499  0.0581  0.0975
   40DMF     N1  959   1.392   1.982   1.103  0.0188 -0.5986 -0.4952
   40DMF     C2  960   1.331   2.118   1.118 -0.0564 -0.1915 -0.7015
   40DMF     C3  961   1.361   1.879   1.193  0.1886 -0.1545 -0.0980
   40DMF     O1  962   1.417   1.772   1.199 -0.1419 -0.1459 -0.0907
   40DMF     H1  963   1.422   2.000   0.896 -1.0027  1.3974  1.9766
   40DMF     H2  964   1.468   1.840   0.968 -0.7143  0.0646  0.2889
   40DMF     H3  965   1.571   1.986   1.004  1.1674 -2.6362  3.9013
   40DMF     H4  966   1.401   2.198   1.089 -0.4276  0.4677  0.2074
   40DMF     H5  967   1.318   2.133   1.226  1.5973 -0.7099 -0.4195
   40DMF     H6  968   1.241   2.126   1.056  0.2437 -1.6005 -1.3413
   40DMF     H7  969   1.279   1.906   1.262  0.1361  2.0960 -0.9874
   41DMF     C1  970   0.803   1.548   0.512  0.8174 -0.2574  0.4637
   41DMF     N1  971   0.925   1.542   0.422  0.0773  0.0770  0.3807
   41DMF     C2  972   1.058   1.586   0.479 -0.0571  0.2482  0.6954
   41DMF     C3  973   0.915   1.516   0.286  0.1021  0.4770  0.7361
   41DMF     O1  974   0.807   1.496   0.236 -0.2617 -0.4196  0.1113
   41DMF     H1  975   0.738   1.636   0.501  0.3818 -0.5833  0.4069
   41DMF     H2  976   0.832   1.549   0.617  0.2176 -2.9572  0.6931
   41DMF     H3  977   0.737   1.464   0.487 -0.4677  1.0424 -0.5817
   41DMF     H4  978   1.066   1.695   0.470 -0.2376  0.1312 -0.8795
   41DMF     H5  979   1.139   1.531   0.429 -0.6097 -0.5789  0.6973
   41DMF     H6  980   1.071   1.558   0.585 -1.7190 -2.6630  0.2052
   41DMF     H7  981   1.013   1.517   0.234  0.3305 -0.5185  1.1298
   42DMF     C1  982   3.109   3.108   0.579 -0.3238  0.4583 -0.7569
   42DMF     N1  983   3.245   3.159   0.596 -0.4535  0.0766  0.3174
   42DMF     C2  984   3.349   3.066   0.646 -0.6807  0.1881  0.2300
   42DMF     C3  985   3.271   3.301   0.611  0.3651 -0.1527  1.3325
   42DMF     O1  986   3.178   3.377   0.598 -0.3077  0.3598 -0.3255
   42DMF     H1  987   3.060   3.074   0.671  0.7067  0.2599 -0.2765
   42DMF     H2  988   3.111   3.033   0.499  0.6691  1.0268 -1.2872
   42DMF     H3  989   3.049   3.186   0.530 -0.1188  0.6810 -0.6562
   42DMF     H4  990   3.371   3.100   0.748  1.0170  3.7481 -1.2074
   42DMF     H5  991   3.440   3.078   0.585 -0.9175  0.3443 -0.0948
   42DMF     H6  992   3.326   2.959   0.652 -0.6512  0.0749 -1.5008
   42DMF     H7  993   3.375   3.325   0.640 -0.2379  2.5040  1.4656
   43DMF     C1  994   2.807   0.609   0.756 -0.2003 -0.2779 -0.5938
   43DMF     N1  995   2.667   0.578   0.780  0.2307 -0.6435  0.8927
   43DMF     C2  996   2.578   0.578   0.668 -0.2606 -0.5435  0.2432
   43DMF     C3  997   2.622   0.531   0.902 -0.2341 -0.1339 -0.5153
   43DMF     O1  998   2.694   0.507   0.997  0.0252 -0.2928 -0.3108
   43DMF     H1  999   2.809   0.682   0.674 -0.2221  1.5868  1.0200
   43DMF     H2 1000   2.866   0.521   0.730  0.7521 -1.1797  4.1760
   43DMF     H3 1001   2.841   0.662   0.846  2.5657 -3.3847  0.2974
   43DMF     H4 1002   2.504   0.497   0.678 -0.0336 -0.9344 -1.1917
   43DMF     H5 1003   2.637   0.561   0.577  1.4077 -2.7168  1.6710
   43DMF     H6 1004   2.528   0.675   0.661 -0.6127 -0.7055  0.4744
   43DMF     H7 1005   2.512   0.521   0.909 -0.4612  1.4857 -1.6492
   44DMF     C1 1006   1.765   1.704   1.555  0.1703  0.4177 -0.4069
   44DMF     N1 1007   1.874   1.612   1.555 -0.1278 -0.3208 -0.1504
   44DMF     C2 1008   1.838   1.479   1.529  0.0135 -0.8252  0.1154
   44DMF     C3 1009   2.001   1.665   1.552  0.2146  0.3872  0.1462
   44DMF     O1 1010   2.024   1.784   1.565 -0.2660 -0.1780 -0.9758
   44DMF     H1 1011   1.671   1.657   1.585  0.8941 -1.0471 -0.4123
   44DMF     H2 1012   1.749   1.749   1.456 -1.2898  1.9557  0.4856
   44DMF     H3 1013   1.792   1.786   1.623  1.0139 -1.4895  1.6115
   44DMF     H4 1014   1.921   1.424   1.575  0.8650  0.6653  0.4165
   44DMF     H5 1015   1.818   1.467   1.422 -0.8133  2.6374 -0.1991
   44DMF     H6 1016   1.745   1.457   1.584 -1.2466  0.1909 -1.5694
   44DMF     H7 1017   2.081   1.594   1.524  0.8052  0.3212  1.9376
   45DMF     C1 1018   0.193   2.596   0.248  0.1554  0.5447  0.2492
   45DMF     N1 1019   0.113   2.588   0.122  0.0047  0.0439  0.1013
   45DMF     C2 1020   0.004   2.483   0.115  0.0186  1.1005 -0.2697
   45DMF     C3 1021   0.130   2.667   0.011 -0.2849  0.1613 -0.2968
   45DMF     O1 1022   0.222   2.747   0.010 -0.1104  0.5632  0.0357
   45DMF     H1 1023   0.230   2.496   0.275  0.6838  0.9276  0.9877
   45DMF     H2 1024   0.136   2.626   0.337 -2.4638 -0.5688 -1.0245
   45DMF     H3 1025   0.280   2.659   0.225 -0.4635  1.2727 -0.0942
   45DMF     H4 1026  -0.037   2.451   0.212  0.0363 -2.2560 -1.2932
   45DMF     H5 1027   0.045   2.396   0.063  0.9099  2.6190 -2.1511
   45DMF     H6 1028  -0.076   2.530   0.056 -0.9543  0.9101  0.8776
   45DMF     H7 1029   0.050   2.666  -0.066  1.4036  0.5682 -2.1115
   46DMF     C1 1030   0.744   2.896   1.533  0.6396  0.3295  0.3026
   46DMF     N1 1031   0.893   2.900   1.533  0.3291  0.6545 -0.5822
   46DMF     C2 1032   0.959   2.764   1.528  0.0704 -0.7774 -0.0114
   46DMF     C3 1033   0.958   3.021   1.539 -0.4594 -0.2232 -0.6819
   46DMF     O1 1034   0.899   3.126   1.556 -0.6426  0.1082  0.2554
   46DMF     H1 1035   0.709   2.869   1.633 -1.1253  1.9563  0.1505
   46DMF     H2 1036   0.706   2.811   1.475 -1.3148  1.5790 -0.2625
   46DMF     H3 1037   0.691   2.987   1.503 -3.2766 -1.2532  2.0748
   46DMF     H4 1038   0.886   2.686   1.505  2.5951 -3.3144  0.3798
   46DMF     H5 1039   1.003   2.732   1.623  1.1472 -1.8643 -0.8674
   46DMF     H6 1040   1.032   2.774   1.447  0.4618 -2.3143  0.1376
   46DMF     H7 1041   1.069   3.019   1.543 -0.4635 -1.6850 -1.1666
   47DMF     C1 1042   0.551   3.303   1.561  0.0909 -0.5953  0.3266
   47DMF     N1 1043   0.460   3.317   1.449 -0.3895 -0.0111 -0.2357
   47DMF     C2 1044   0.487   3.245   1.323 -0.0291 -0.0408  0.7169
   47DMF     C3 1045   0.345   3.397   1.452  0.2381  0.9023  0.2663
   47DMF     O1 1046   0.328   3.466   1.554  0.2352 -0.0095  0.3116
   47DMF     H1 1047   0.637   3.248   1.521 -1.6384 -1.5277 -2.3109
   47DMF     H2 1048   0.500   3.250   1.643 -1.0521 -0.1453 -0.0867
   47DMF     H3 1049   0.576   3.401   1.601 -2.4157 -0.1764  0.9692
   47DMF     H4 1050   0.435   3.291   1.238 -1.1714 -0.7042  1.0574
   47DMF     H5 1051   0.462   3.140   1.336 -0.4398 -0.1638 -1.0627
   47DMF     H6 1052   0.595   3.258   1.306 -0.5249  1.2508 -1.6653
   47DMF     H7 1053   0.278   3.399   1.365 -0.3261  0.2542  0.6857
   48DMF     C1 1054   1.073   2.918   3.360 -0.2714  0.2710  0.7277
   48DMF     N1 1055   0.960   2.863   3.436  0.4781  0.1808 -0.6499
   48DMF     C2 1056   0.987   2.831   3.580  0.2041 -0.3183  1.1482
   48DMF     C3 1057   0.830   2.860   3.394 -0.6845 -0.8506  0.1033
   48DMF     O1 1058   0.797   2.909   3.287 -0.3736  0.6987  0.4221
   48DMF     H1 1059   1.161   2.939   3.421 -1.5212  0.0163  2.6778
   48DMF     H2 1060   1.044   3.014   3.315 -1.2342 -0.4889 -0.2955
   48DMF     H3 1061   1.098   2.853   3.276  2.2692  0.9995  0.8954
   48DMF     H4 1062   0.898   2.792   3.631 -2.5495  3.5528 -0.4193
   48DMF     H5 1063   1.023   2.921   3.631  0.1214  0.1430  0.4008
   48DMF     H6 1064   1.069   2.758   3.578  0.8150  0.3399  1.9633
   48DMF     H7 1065   0.760   2.815   3.466  0.2440 -2.5620 -0.0463
   49DMF     C1 1066   2.914   0.644   1.533 -0.0583  0.6530  0.3691
   49DMF     N1 1067   2.936   0.653   1.380  0.1921 -0.6534  0.0627
   49DMF     C2 1068   3.068   0.609   1.335  0.1079 -0.0216  0.0957
   49DMF     C3 1069   2.836   0.704   1.291  0.1719  1.0884  0.7482
   49DMF     O1 1070   2.740   0.752   1.335  0.7406 -0.1411 -0.1506
   49DMF     H1 1071   3.013   0.656   1.579  0.4914 -2.4470  0.0744
   49DMF     H2 1072   2.874   0.544   1.552 -0.6243  0.9453  0.7084
   49DMF     H3 1073   2.834   0.716   1.555  1.2223  2.3586 -0.3483
   49DMF     H4 1074   3.063   0.530   1.260  2.1373  0.0878 -0.1783
   49DMF     H5 1075   3.138   0.581   1.415  1.2238  0.6239 -0.6425
   49DMF     H6 1076   3.120   0.688   1.280  1.7028 -0.1167  1.4031
   49DMF     H7 1077   2.864   0.683   1.186 -0.9108 -2.5797  1.1258
   50DMF     C1 1078   2.491   1.711   0.920 -0.7200  0.1334  0.5076
   50DMF     N1 1079   2.364   1.756   0.972  0.0834 -0.3737 -0.5556
   50DMF     C2 1080   2.245   1.679   0.929  0.0677 -0.6121 -0.3405
   50DMF     C3 1081   2.347   1.880   1.032 -0.3280 -0.8553  0.8439
   50DMF     O1 1082   2.431   1.965   1.062  0.3357 -0.0037 -0.4067
   50DMF     H1 1083   2.500   1.602   0.922  0.4047  0.1531 -2.0580
   50DMF     H2 1084   2.570   1.753   0.984 -1.9294 -2.2825  3.6902
   50DMF     H3 1085   2.499   1.749   0.818 -1.6384  0.9944  0.7440
   50DMF     H4 1086   2.266   1.612   0.845  0.8544 -0.5408 -0.2023
   50DMF     H5 1087   2.170   1.753   0.898  2.9926  2.6490  0.0792
   50DMF     H6 1088   2.208   1.620   1.014  0.8966 -1.6920 -0.7124
   50DMF     H7 1089   2.242   1.911   1.036 -0.5144 -1.2847 -0.5592
   51DMF     C1 1090   1.377   2.974   1.513  0.8800 -0.2230  0.1102
   51DMF     N1 1091   1.418   2.990   1.371  0.1076  0.5817  0.6949
   51DMF     C2 1092   1.541   3.057   1.337  0.8950  0.0950 -0.5002
   51DMF     C3 1093   1.335   2.939   1.270 -0.3510  0.3874 -0.8530
   51DMF     O1 1094   1.232   2.883   1.300 -0.0956 -0.4688  0.8698
   51DMF     H1 1095   1.426   3.052   1.575 -1.7400  2.2477 -0.8166
   51DMF     H2 1096   1.409   2.882   1.563 -1.4500 -1.5135 -0.7412
   51DMF     H3 1097   1.269   2.991   1.516  0.7818 -0.9736  1.6242
   51DMF     H4 1098   1.624   3.010   1.391 -0.0627 -2.2332 -1.0255
   51DMF     H5 1099   1.542   3.161   1.372  0.5049 -0.0087 -0.1685
   51DMF     H6 1100   1.562   3.044   1.230 -1.0939 -1.2165 -0.7669
   51DMF     H7 1101   1.362   2.971   1.167  0.8047  0.1538 -0.6317
   52DMF     C1 1102   3.006   2.733   1.003  0.1507 -0.5268  0.2083
   52DMF     N1 1103   3.125   2.674   0.934  0.1603  0.3398  0.2538
   52DMF     C2 1104   3.193   2.555   0.999 -0.6515 -0.3796 -0.2874
   52DMF     C3 1105   3.180   2.739   0.821  0.6396  0.4900 -0.5326
   52DMF     O1 1106   3.125   2.829   0.757  0.2442 -0.2374 -0.4004
   52DMF     H1 1107   2.931   2.788   0.944  0.4251  0.0746  0.4205
   52DMF     H2 1108   3.046   2.807   1.074 -1.4499  1.4836 -0.9307
   52DMF     H3 1109   2.948   2.652   1.050  1.4696 -1.3911  0.3647
   52DMF     H4 1110   3.210   2.470   0.932  0.3872  1.5815 -2.5927
   52DMF     H5 1111   3.133   2.510   1.079 -0.2653 -2.5051 -1.1542
   52DMF     H6 1112   3.293   2.583   1.034 -0.2192 -1.4017 -0.6996
   52DMF     H7 1113   3.276   2.697   0.785 -0.6020 -1.0917 -2.1240
   53DMF     C1 1114   0.045   0.967   1.475  0.4082  0.4465 -0.1334
   53DMF     N1 1115  -0.098   0.978   1.437  0.6308 -0.2488 -0.1279
   53DMF     C2 1116  -0.182   0.879   1.497  0.6282  0.5244 -0.1130
   53DMF     C3 1117  -0.150   1.076   1.352  0.1428 -0.3794 -0.1803
   53DMF     O1 1118  -0.084   1.157   1.287  0.5609 -0.0792 -0.2338
   53DMF     H1 1119   0.056   0.859   1.491 -1.0181  0.9538  5.1741
   53DMF     H2 1120   0.063   1.027   1.565 -3.0031  2.0310 -0.4423
   53DMF     H3 1121   0.107   1.017   1.399 -0.5373  3.2824  0.8957
   53DMF     H4 1122  -0.167   0.776   1.462 -3.6964 -0.0995 -0.3424
   53DMF     H5 1123  -0.285   0.911   1.481  0.6338  0.3619 -0.4852
   53DMF     H6 1124  -0.174   0.897   1.605  0.0205  1.9666 -0.2900
   53DMF     H7 1125  -0.259   1.066   1.335  0.0454  0.3077 -0.0040
   54DMF     C1 1126   1.472   2.859   0.494  0.6929  0.1288  0.0493
   54DMF     N1 1127   1.353   2.781   0.460  0.2368 -0.8587  0.6856
   54DMF     C2 1128   1.253   2.839   0.373  0.4484 -0.4354  0.3170
   54DMF     C3 1129   1.328   2.660   0.533 -0.7737 -0.1375  0.0778
   54DMF     O1 1130   1.417   2.610   0.598  0.2749 -0.4699  0.1585
   54DMF     H1 1131   1.477   2.950   0.432  0.9142  0.3726  0.4268
   54DMF     H2 1132   1.557   2.793   0.474  0.5851 -0.2712  0.8992
   54DMF     H3 1133   1.474   2.880   0.601  0.3918  1.1723 -0.1426
   54DMF     H4 1134   1.173   2.896   0.421  0.8098  0.8952 -0.6249
   54DMF     H5 1135   1.211   2.759   0.311  1.2541 -1.3493  0.9422
   54DMF     H6 1136   1.297   2.911   0.303  0.5650  0.4403  1.2760
   54DMF     H7 1137   1.228   2.621   0.506  0.1631 -2.7986  0.3172
   55DMF     C1 1138   0.303   2.925   0.626  0.0675  0.4593 -0.2326
   55DMF     N1 1139   0.395   2.969   0.734 -0.4296  0.3044  0.6184
   55DMF     C2 1140   0.436   3.109   0.741 -0.2516 -0.9141  0.5903
   55DMF     C3 1141   0.457   2.868   0.814 -0.9328 -0.1739  0.6961
   55DMF     O1 1142   0.439   2.749   0.789  0.2337  0.2995  0.1235
   55DMF     H1 1143   0.200   2.942   0.659 -0.5537 -1.0805 -1.3556
   55DMF     H2 1144   0.316   2.819   0.602 -1.0459 -0.5499  3.2144
   55DMF     H3 1145   0.322   2.980   0.533 -0.8872  0.1417 -0.6196
   55DMF     H4 1146   0.445   3.152   0.842  0.2650  0.4268 -0.0107
   55DMF     H5 1147   0.355   3.170   0.697  0.8599 -0.7346 -1.2750
   55DMF     H6 1148   0.524   3.124   0.677 -0.3682 -1.3404  0.3297
   55DMF     H7 1149   0.537   2.910   0.878  1.7488 -1.0214 -1.9582
   56DMF     C1 1150   1.917   0.227   3.559 -0.4771  0.0807  0.2201
   56DMF     N1 1151   1.895   0.268   3.697 -0.0962 -0.3058  0.0067
   56DMF     C2 1152   2.015   0.295   3.786  0.9853 -0.7663 -0.0539
   56DMF     C3 1153   1.771   0.283   3.741  0.6524  0.2253  0.2141
   56DMF     O1 1154   1.672   0.264   3.672  0.2092  0.2343  0.4129
   56DMF     H1 1155   2.004   0.160   3.548 -1.1084 -0.5486 -1.0627
   56DMF     H2 1156   1.931   0.306   3.485  0.1140  1.2113  1.5036
   56DMF     H3 1157   1.830   0.165   3.534 -1.3027  1.6328 -0.7740
   56DMF     H4 1158   1.987   0.384   3.843  2.1471 -0.3972 -0.0417
   56DMF     H5 1159   2.103   0.316   3.723 -0.4590  0.4286 -1.7358
   56DMF     H6 1160   2.038   0.210   3.851 -0.0850  0.1774  1.5774
   56DMF     H7 1161   1.762   0.315   3.846 -0.4755 -0.4293  0.3269
   57DMF     C1 1162   0.891   0.807   1.482  0.3367 -0.3069  0.3700
   57DMF     N1 1163   1.028   0.781   1.529 -0.4682  0.5050  0.1570
   57DMF     C2 1164   1.119   0.891   1.541  0.1093 -0.2065 -0.0621
   57DMF     C3 1165   1.070   0.647   1.538 -0.1477  0.0128 -0.3501
   57DMF     O1 1166   0.997   0.552   1.554  0.0448 -0.6035 -0.0961
   57DMF     H1 1167   0.878   0.916   1.486  0.3530 -0.3773  3.6097
   57DMF     H2 1168   0.824   0.773   1.561 -0.8412 -0.2461 -0.5997
   57DMF     H3 1169   0.873   0.765   1.383 -0.2913 -1.5056  0.9918
   57DMF     H4 1170   1.067   0.983   1.570  1.3741  0.2137  0.9334
   57DMF     H5 1171   1.165   0.904   1.442 -1.7997 -2.3898 -1.2691
   57DMF     H6 1172   1.202   0.875   1.612  0.5833 -2.2544 -1.0499
   57DMF     H7 1173   1.180   0.640   1.546  0.0895 -0.6997 -3.6443
   58DMF     C1 1174   1.485   1.008   0.844  0.2680  0.7870  0.0027
   58DMF     N1 1175   1.520   0.898   0.749  0.1840 -0.1564 -0.0781
   58DMF     C2 1176   1.669   0.866   0.742 -0.0063 -0.7688 -0.1730
   58DMF     C3 1177   1.430   0.814   0.698 -0.5583  0.0374 -0.3986
   58DMF     O1 1178   1.308   0.824   0.715 -0.4620 -0.1538 -0.3898
   58DMF     H1 1179   1.556   1.091   0.836  2.0089 -0.5871  1.0844
   58DMF     H2 1180   1.511   0.976   0.946  0.7799  0.4847 -0.2246
   58DMF     H3 1181   1.379   1.038   0.842 -0.0371 -0.3013 -0.4317
   58DMF     H4 1182   1.707   0.854   0.844 -0.8139  1.3850  0.4027
   58DMF     H5 1183   1.712   0.957   0.700 -0.3546 -0.3581  0.3529
   58DMF     H6 1184   1.687   0.778   0.680  0.2680  0.0551 -1.2682
   58DMF     H7 1185   1.475   0.731   0.642  1.3093  0.4577  0.4552
   59DMF     C1 1186   0.993   2.254   1.030  0.3314  0.6275 -0.2017
   59DMF     N1 1187   0.987   2.111   1.050 -0.0997 -0.0840  0.3216
   59DMF     C2 1188   0.973   2.068   1.187 -0.3127 -0.2209  0.0456
   59DMF     C3 1189   1.021   2.022   0.949 -0.1791  0.7638  0.1348
   59DMF     O1 1190   1.054   2.059   0.833  0.4834 -0.0732 -0.1125
   59DMF     H1 1191   1.011   2.309   1.123 -0.8713  0.7392 -0.0382
   59DMF     H2 1192   0.898   2.295   0.994 -0.7629 -2.1631 -0.6742
   59DMF     H3 1193   1.079   2.281   0.966 -0.5887  2.1579 -0.7995
   59DMF     H4 1194   0.873   2.026   1.196  1.0778 -4.2229 -1.6790
   59DMF     H5 1195   0.988   2.145   1.263 -0.0840  0.0225 -0.2472
   59DMF     H6 1196   1.056   1.997   1.200  0.1933  0.6036  1.3452
   59DMF     H7 1197   1.037   1.920   0.989 -0.5041  0.0775 -1.4624
   60DMF     C1 1198   3.029   1.749   0.388 -0.0225  0.2080 -1.1773
   60DMF     N1 1199   2.910   1.667   0.355  0.5417 -0.6860  0.5178
   60DMF     C2 1200   2.825   1.619   0.458  0.0612  0.3674 -0.2093
   60DMF     C3 1201   2.872   1.652   0.218  0.0101 -0.1353  0.5594
   60DMF     O1 1202   2.933   1.704   0.126 -0.6952  0.8413 -1.0264
   60DMF     H1 1203   3.098   1.749   0.303  2.0108 -0.1244  0.4188
   60DMF     H2 1204   3.087   1.713   0.474 -0.2537 -0.8462 -1.4495
   60DMF     H3 1205   3.002   1.853   0.411 -0.1375 -0.6108  2.6936
   60DMF     H4 1206   2.777   1.525   0.427  0.8571 -0.5837  1.3956
   60DMF     H5 1207   2.752   1.699   0.476 -0.1286 -0.1917  1.7078
   60DMF     H6 1208   2.884   1.598   0.548 -0.3193 -0.4116 -0.1312
   60DMF     H7 1209   2.779   1.592   0.222 -0.0318 -0.0575  0.7631
   61DMF     C1 1210   2.055   1.708   3.705 -0.0884 -0.1967  1.1454
   61DMF     N1 1211   2.103   1.567   3.704  0.2048 -0.1960  0.2222
   61DMF     C2 1212   2.081   1.480   3.581 -0.6494 -0.2062  0.1951
   61DMF     C3 1213   2.144   1.504   3.824  0.2868  0.0548  0.0895
   61DMF     O1 1214   2.148   1.559   3.934 -0.4230  0.3910 -0.2710
   61DMF     H1 1215   2.120   1.759   3.777  0.4338  0.1006  0.4575
   61DMF     H2 1216   1.950   1.716   3.737 -0.6520  2.3869 -1.2229
   61DMF     H3 1217   2.078   1.763   3.613  1.9657 -0.2785  1.6043
   61DMF     H4 1218   2.175   1.458   3.529 -1.4950 -1.8025 -0.6958
   61DMF     H5 1219   2.004   1.519   3.513 -0.1131  0.5644  0.0290
   61DMF     H6 1220   2.038   1.383   3.610  1.0767 -1.7943 -2.3669
   61DMF     H7 1221   2.158   1.394   3.819  1.4855  0.2213 -0.2859
   62DMF     C1 1222   2.591   2.922   1.032 -0.2824  0.4186 -0.1160
   62DMF     N1 1223   2.449   2.896   1.006 -0.2021 -0.9182 -0.7498
   62DMF     C2 1224   2.403   2.891   0.871  0.0548  0.3297  0.2050
   62DMF     C3 1225   2.352   2.901   1.107 -0.2872 -0.6481  0.0077
   62DMF     O1 1226   2.382   2.916   1.225  0.4199  0.2984  0.0903
   62DMF     H1 1227   2.634   2.827   1.067  0.2489  0.3533 -0.9271
   62DMF     H2 1228   2.606   2.983   1.121  0.7555 -0.5950  0.4118
   62DMF     H3 1229   2.643   2.966   0.946 -2.3757  1.5470 -0.8535
   62DMF     H4 1230   2.406   2.788   0.834 -0.2481  0.7807 -1.1139
   62DMF     H5 1231   2.475   2.945   0.808 -0.4047  1.2007  0.4194
   62DMF     H6 1232   2.302   2.934   0.862 -0.1373 -0.4339 -1.6624
   62DMF     H7 1233   2.256   2.869   1.063 -0.0205  0.4185 -1.3687
   63DMF     C1 1234   1.777   0.127   1.145 -0.5304 -0.7669  0.3374
   63DMF     N1 1235   1.857   0.008   1.111 -0.5829 -0.0610 -0.1807
   63DMF     C2 1236   1.970   0.020   1.008 -0.6272  0.0547 -0.6257
   63DMF     C3 1237   1.828  -0.116   1.175 -0.5372  0.3953 -0.3772
   63DMF     O1 1238   1.736  -0.124   1.251 -0.1545  0.0621  0.3820
   63DMF     H1 1239   1.673   0.126   1.111  0.4295 -1.9952 -2.7459
   63DMF     H2 1240   1.828   0.217   1.109 -0.0635 -1.1502  0.0341
   63DMF     H3 1241   1.770   0.131   1.255 -2.6161  0.4143  0.1826
   63DMF     H4 1242   2.051  -0.034   1.059 -0.7647  2.3049  2.1311
   63DMF     H5 1243   2.000   0.124   0.989  0.7784 -0.0916  0.6718
   63DMF     H6 1244   1.937  -0.036   0.920 -0.4368 -1.9429  0.5345
   63DMF     H7 1245   1.893  -0.202   1.152 -1.6398 -0.8702  1.1053
   64DMF     C1 1246   3.006   0.905   0.750  0.5577 -0.2542  0.4369
   64DMF     N1 1247   3.102   0.971   0.665  0.1086  0.0806 -0.4960
   64DMF     C2 1248   3.244   0.908   0.651  0.3622  0.1401  0.4015
   64DMF     C3 1249   3.068   1.099   0.616  0.4144  0.3841  0.2284
   64DMF     O1 1250   2.961   1.148   0.634 -0.2872 -0.5264  0.4170
   64DMF     H1 1251   2.902   0.913   0.715  0.4548 -0.0340  0.7863
   64DMF     H2 1252   3.009   0.948   0.851  2.1950 -0.2013  0.3876
   64DMF     H3 1253   3.036   0.800   0.754  1.3048 -0.0310  0.9720
   64DMF     H4 1254   3.283   0.853   0.737  0.5549  0.7787  0.7268
   64DMF     H5 1255   3.311   0.995   0.652 -2.0623  2.1097 -1.2542
   64DMF     H6 1256   3.261   0.856   0.556  1.5222 -0.6815  1.0478
   64DMF     H7 1257   3.151   1.151   0.565 -0.2670 -0.0940 -1.4190
   65DMF     C1 1258   0.796   2.606   0.227 -0.8430 -0.3720  0.3643
   65DMF     N1 1259   0.871   2.497   0.160 -0.7730 -0.1090  0.3938
   65DMF     C2 1260   0.786   2.391   0.106  0.6798  0.1189 -0.0675
   65DMF     C3 1261   1.007   2.499   0.156  0.1011 -0.1909  0.4929
   65DMF     O1 1262   1.083   2.589   0.196 -0.4063  0.1708  0.0827
   65DMF     H1 1263   0.859   2.691   0.255 -0.2060 -0.7757  0.1416
   65DMF     H2 1264   0.750   2.574   0.321  0.5485 -1.1418  0.7947
   65DMF     H3 1265   0.727   2.655   0.156 -2.7364 -1.7802  1.1880
   65DMF     H4 1266   0.751   2.419   0.007  0.8310 -2.7604 -0.9777
   65DMF     H5 1267   0.694   2.364   0.159  1.6563  2.0542  2.8000
   65DMF     H6 1268   0.850   2.303   0.095  0.9474  0.2786  0.1919
   65DMF     H7 1269   1.043   2.406   0.107  1.9706  1.1644 -0.7957
   66DMF     C1 1270   1.271   1.790   0.709  0.1594 -0.0410  0.1651
   66DMF     N1 1271   1.300   1.653   0.758 -0.3695 -0.3666  0.0654
   66DMF     C2 1272   1.401   1.570   0.694  0.2599  0.0309  0.2632
   66DMF     C3 1273   1.255   1.623   0.886  0.0876  0.1611  0.0811
   66DMF     O1 1274   1.176   1.689   0.952  0.3845 -0.1815 -0.5029
   66DMF     H1 1275   1.362   1.831   0.662 -0.0727  0.7002  0.3557
   66DMF     H2 1276   1.256   1.860   0.792  0.0559 -0.9495  0.9084
   66DMF     H3 1277   1.186   1.796   0.640 -0.1912 -0.5707  0.5530
   66DMF     H4 1278   1.491   1.558   0.756  1.7121  0.4942 -1.6926
   66DMF     H5 1279   1.417   1.607   0.592 -1.6061  2.5585  0.8178
   66DMF     H6 1280   1.358   1.471   0.675 -0.5796  0.6533 -1.1600
   66DMF     H7 1281   1.298   1.525   0.912 -0.0307  0.2047  0.4367
   67DMF     C1 1282   2.858   1.937   1.189  0.0025  0.4086  0.3672
   67DMF     N1 1283   2.749   2.013   1.127  0.0905 -0.1046 -0.2245
   67DMF     C2 1284   2.671   2.098   1.212 -0.3151  0.0088  0.4787
   67DMF     C3 1285   2.725   2.011   0.993 -0.0237  0.7150  0.3495
   67DMF     O1 1286   2.798   1.953   0.913 -0.2181  0.1762  0.4411
   67DMF     H1 1287   2.891   1.984   1.282  0.5709 -0.1137  0.4358
   67DMF     H2 1288   2.943   1.918   1.122 -0.3198 -0.5455  0.2212
   67DMF     H3 1289   2.814   1.838   1.201 -1.8121  0.9450 -1.5105
   67DMF     H4 1290   2.615   2.036   1.283 -2.4273 -0.6769 -1.7055
   67DMF     H5 1291   2.597   2.152   1.152 -0.0054 -1.1787 -0.9963
   67DMF     H6 1292   2.736   2.170   1.263 -0.8966  1.7301 -1.1564
   67DMF     H7 1293   2.636   2.069   0.961  0.0230  0.4714 -0.2471
   68DMF     C1 1294   1.408   1.187   0.567  0.3775 -0.2283  0.0254
   68DMF     N1 1295   1.412   1.211   0.418  0.4031  0.1143 -0.8474
   68DMF     C2 1296   1.311   1.161   0.332  0.3020 -0.4171  0.5680
   68DMF     C3 1297   1.505   1.301   0.364  0.1050 -0.4169  0.9845
   68DMF     O1 1298   1.585   1.355   0.435 -0.5462  0.3397 -0.2357
   68DMF     H1 1299   1.416   1.078   0.575 -0.9048 -0.3628 -0.3342
   68DMF     H2 1300   1.310   1.210   0.610 -1.0000 -1.2154 -2.4549
   68DMF     H3 1301   1.481   1.239   0.630 -0.3816 -1.2558  1.8088
   68DMF     H4 1302   1.357   1.144   0.234 -2.2613 -1.3753 -0.5111
   68DMF     H5 1303   1.236   1.240   0.329  1.1851  0.4374  0.7733
   68DMF     H6 1304   1.262   1.073   0.376  0.5757 -1.0731 -0.4223
   68DMF     H7 1305   1.499   1.320   0.255 -0.0178  0.3146  1.1168
   69DMF     C1 1306   1.170   2.215   3.446 -0.3660 -0.0402 -0.1741
   69DMF     N1 1307   1.023   2.205   3.453  0.1858  0.5532  0.0442
   69DMF     C2 1308   0.960   2.079   3.483  0.1425 -0.1806  0.4166
   69DMF     C3 1309   0.955   2.324   3.480 -0.1242  0.0791  0.4263
   69DMF     O1 1310   1.005   2.439   3.468  0.0946  0.7704  0.2660
   69DMF     H1 1311   1.219   2.129   3.493 -0.7219 -0.3911 -0.4347
   69DMF     H2 1312   1.209   2.308   3.489 -0.2309  0.7964 -2.0652
   69DMF     H3 1313   1.188   2.211   3.338 -3.0441  0.4356 -0.6737
   69DMF     H4 1314   0.951   2.016   3.394  0.2606  0.5772 -0.1310
   69DMF     H5 1315   0.868   2.110   3.534  0.1203  0.2268  0.1357
   69DMF     H6 1316   1.015   2.029   3.563 -0.3898 -0.6735  0.4768
   69DMF     H7 1317   0.848   2.317   3.509  0.0861  0.5984  1.3405
   70DMF     C1 1318   1.897   2.888   1.136 -0.1951 -0.0226  1.1580
   70DMF     N1 1319   1.866   2.846   0.993  0.6153  0.6442  0.1650
   70DMF     C2 1320   1.730   2.872   0.942  0.1208  0.3386  0.0019
   70DMF     C3 1321   1.969   2.810   0.899 -0.7494  0.2172  0.0487
   70DMF     O1 1322   2.084   2.774   0.936  0.5283  0.1345 -0.0892
   70DMF     H1 1323   1.913   2.800   1.199  0.0886 -2.1566 -1.7911
   70DMF     H2 1324   1.817   2.950   1.179 -0.1722  1.2516 -0.5984
   70DMF     H3 1325   1.981   2.955   1.115 -0.9722  0.1029 -1.7578
   70DMF     H4 1326   1.718   2.891   0.834 -1.2710  0.3052  0.1328
   70DMF     H5 1327   1.679   2.946   1.006  1.1631  1.7544 -0.7677
   70DMF     H6 1328   1.676   2.777   0.952 -1.8193  1.2269 -1.5557
   70DMF     H7 1329   1.934   2.800   0.795  0.6024  0.3649 -0.4330
   71DMF     C1 1330   1.556   0.871   0.334 -0.0457  0.0516 -0.3323
   71DMF     N1 1331   1.697   0.894   0.309 -0.3409  0.2131  0.3038
   71DMF     C2 1332   1.796   0.813   0.380  0.0889  0.3496  0.1683
   71DMF     C3 1333   1.731   0.999   0.230  0.4577 -0.0597 -0.7469
   71DMF     O1 1334   1.648   1.072   0.177  0.0526 -0.0885  0.2880
   71DMF     H1 1335   1.502   0.967   0.332  0.2160  0.2337  0.7781
   71DMF     H2 1336   1.543   0.827   0.434 -1.2414  1.0831 -0.0180
   71DMF     H3 1337   1.520   0.813   0.248  1.7925  0.0551 -1.1081
   71DMF     H4 1338   1.813   0.862   0.476 -2.6679 -0.5357  1.1386
   71DMF     H5 1339   1.889   0.811   0.321 -0.3250  0.8017 -0.5066
   71DMF     H6 1340   1.761   0.710   0.393  0.6938 -0.2166 -2.3924
   71DMF     H7 1341   1.840   1.010   0.215  0.7906 -1.9002  0.1277
   72DMF     C1 1342   0.099   2.325   0.853 -0.0122  0.1242  0.1527
   72DMF     N1 1343   0.135   2.411   0.739  0.3799 -0.3380  0.4019
   72DMF     C2 1344   0.199   2.542   0.766  0.0095  0.1677 -0.0757
   72DMF     C3 1345   0.091   2.376   0.607  0.4053 -0.7987  1.1930
   72DMF     O1 1346   0.031   2.275   0.580 -0.3359 -0.2280  0.4294
   72DMF     H1 1347   0.110   2.390   0.941 -2.8903  0.4205  0.3446
   72DMF     H2 1348   0.172   2.244   0.863  1.5395  1.3311 -1.0426
   72DMF     H3 1349  -0.004   2.289   0.854  0.5982 -1.6398  1.9203
   72DMF     H4 1350   0.304   2.521   0.790 -0.0003  0.1817 -0.0192
   72DMF     H5 1351   0.146   2.588   0.850 -0.0389 -0.9422  0.5166
   72DMF     H6 1352   0.201   2.612   0.682 -0.7908  1.3390  0.8521
   72DMF     H7 1353   0.115   2.448   0.527  2.1301 -1.2250  1.2967
   73DMF     C1 1354   1.138   0.036   0.793 -0.6002 -0.0462  0.7000
   73DMF     N1 1355   1.028   0.099   0.872  0.1993  0.1712  0.0158
   73DMF     C2 1356   1.051   0.116   1.014  0.1211  0.7944 -1.2325
   73DMF     C3 1357   0.903   0.135   0.806  0.2228  0.2152  0.6326
   73DMF     O1 1358   0.892   0.125   0.685 -0.0286  0.5124  0.3109
   73DMF     H1 1359   1.139   0.073   0.689  0.1944 -0.4886  0.5481
   73DMF     H2 1360   1.125  -0.072   0.783  2.6642 -0.3833 -0.6979
   73DMF     H3 1361   1.235   0.060   0.839 -0.4313 -1.8614  1.3195
   73DMF     H4 1362   0.954   0.118   1.066  1.0860 -1.8494  0.7490
   73DMF     H5 1363   1.097   0.213   1.038 -1.2548  0.8987  1.1724
   73DMF     H6 1364   1.110   0.033   1.055 -0.2638  0.8267 -0.6020
   73DMF     H7 1365   0.830   0.185   0.872  2.4850  1.3484  2.3580
   74DMF     C1 1366   1.938   2.253   0.985  0.4343  0.1887  0.1712
   74DMF     N1 1367   1.855   2.361   1.037  0.6996 -0.9395  0.1281
   74DMF     C2 1368   1.900   2.445   1.147 -0.1673  0.1604  0.0332
   74DMF     C3 1369   1.716   2.359   1.007 -0.1160  0.4508 -0.4426
   74DMF     O1 1370   1.670   2.272   0.935  0.1122 -0.0238  0.5294
   74DMF     H1 1371   2.041   2.288   0.999  1.0334 -2.6012  3.1660
   74DMF     H2 1372   1.916   2.239   0.879 -0.8334 -0.1238  0.4672
   74DMF     H3 1373   1.913   2.163   1.042 -1.8775  1.4676  1.2810
   74DMF     H4 1374   1.925   2.545   1.111  0.0543 -0.3683 -1.3442
   74DMF     H5 1375   1.993   2.405   1.190 -1.5191 -1.4343  1.5472
   74DMF     H6 1376   1.827   2.453   1.228  0.5923  1.0201  0.6508
   74DMF     H7 1377   1.658   2.439   1.058 -0.0022 -0.2355  0.7922
   75DMF     C1 1378   2.784   3.267   0.943 -0.4118  0.1962  0.5045
   75DMF     N1 1379   2.917   3.231   0.893 -0.5689  0.3526 -0.0973
   75DMF     C2 1380   2.956   3.088   0.907  0.1197  0.5054  0.2184
   75DMF     C3 1381   3.016   3.321   0.863 -0.0252 -0.0436  0.5388
   75DMF     O1 1382   2.994   3.437   0.868  0.4255 -1.1529  0.5261
   75DMF     H1 1383   2.727   3.316   0.863 -0.9263 -3.4277 -1.4668
   75DMF     H2 1384   2.803   3.326   1.033  0.6389 -1.5034  1.4081
   75DMF     H3 1385   2.728   3.182   0.983  1.0287 -0.1661  1.7998
   75DMF     H4 1386   3.065   3.075   0.910  0.0207 -0.7999 -1.3568
   75DMF     H5 1387   2.929   3.033   0.816  1.0253  0.1015  0.1839
   75DMF     H6 1388   2.911   3.046   0.998  1.3204  1.0745  1.0897
   75DMF     H7 1389   3.113   3.269   0.851  0.3997  0.5538  1.3311
   76DMF     C1 1390   2.305   1.355   1.139 -0.5617  0.5111 -0.3258
   76DMF     N1 1391   2.344   1.289   1.015 -0.1948  0.0190  0.4235
   76DMF     C2 1392   2.226   1.254   0.929 -0.0601  0.0980 -0.1353
   76DMF     C3 1393   2.481   1.272   0.981  1.1372  0.3256 -0.0780
   76DMF     O1 1394   2.573   1.307   1.050 -0.2502 -0.3508  0.3028
   76DMF     H1 1395   2.384   1.340   1.213 -2.0214 -1.7300  0.8307
   76DMF     H2 1396   2.213   1.311   1.178  0.8344 -0.0061  2.4781
   76DMF     H3 1397   2.283   1.461   1.122  0.5822  0.4472 -2.4794
   76DMF     H4 1398   2.174   1.159   0.949  0.6295 -0.9256 -2.9569
   76DMF     H5 1399   2.269   1.245   0.829  2.0288 -3.3582  0.9669
   76DMF     H6 1400   2.153   1.336   0.927 -0.7006 -0.5003 -1.6155
   76DMF     H7 1401   2.487   1.221   0.883 -1.0438 -1.0294  0.4463
   77DMF     C1 1402   3.132   2.056   0.648  0.3912  1.1720  0.1479
   77DMF     N1 1403   3.142   1.993   0.782  0.4030 -0.4392 -0.0306
   77DMF     C2 1404   3.219   2.063   0.888 -0.2030  0.2925  0.0625
   77DMF     C3 1405   3.111   1.850   0.800 -1.3117  0.4647 -0.7059
   77DMF     O1 1406   3.077   1.787   0.703  0.1147  0.0205  0.4414
   77DMF     H1 1407   3.081   2.152   0.653 -1.1676  0.3331  0.7244
   77DMF     H2 1408   3.070   1.993   0.584  2.6173  0.3359 -1.2555
   77DMF     H3 1409   3.231   2.073   0.605 -0.2792  0.9468 -1.5052
   77DMF     H4 1410   3.194   2.017   0.984  0.2016 -0.3785 -0.1508
   77DMF     H5 1411   3.190   2.169   0.892  0.4358  0.4478  0.5747
   77DMF     H6 1412   3.326   2.054   0.868 -0.4358  1.5703 -1.9599
   77DMF     H7 1413   3.102   1.812   0.903 -1.2332  1.0717 -0.4722
   78DMF     C1 1414   2.002   0.040   0.454 -0.0168 -0.4734 -0.0113
   78DMF     N1 1415   1.862   0.087   0.411 -0.2138  0.0719 -0.4806
   78DMF     C2 1416   1.850   0.138   0.275  0.4860  0.0557 -0.0949
   78DMF     C3 1417   1.743   0.080   0.498  0.1718  0.0530  0.4198
   78DMF     O1 1418   1.736   0.021   0.604 -0.1487  0.6449 -0.6592
   78DMF     H1 1419   2.058   0.134   0.461 -3.1685  1.3806  1.8446
   78DMF     H2 1420   2.045  -0.030   0.383 -1.8134 -2.2831  0.6354
   78DMF     H3 1421   1.995  -0.003   0.555 -1.4375 -0.2478 -0.0002
   78DMF     H4 1422   1.747   0.143   0.238  0.7851  1.2493 -0.8024
   78DMF     H5 1423   1.915   0.075   0.213  0.0445  2.1885 -2.7954
   78DMF     H6 1424   1.896   0.237   0.260 -2.2427  1.3548 -0.1898
   78DMF     H7 1425   1.659   0.129   0.445  1.2316  0.4833 -0.8958
   79DMF     C1 1426   2.297   3.278   1.125  0.0443 -0.5878 -0.5237
   79DMF     N1 1427   2.289   3.227   0.987  0.6146  0.0752  0.0139
   79DMF     C2 1428   2.404   3.239   0.900  0.1592 -0.0703  0.1795
   79DMF     C3 1429   2.161   3.178   0.945  0.2051  0.5215 -0.2395
   79DMF     O1 1430   2.065   3.156   1.019 -0.5040 -0.0331  0.5647
   79DMF     H1 1431   2.264   3.383   1.126  2.2194  0.1178  0.5213
   79DMF     H2 1432   2.396   3.264   1.171 -0.0216  0.0988 -0.1663
   79DMF     H3 1433   2.226   3.227   1.191  0.3080 -0.7920 -0.3952
   79DMF     H4 1434   2.497   3.211   0.951  1.3431  3.3830  0.0343
   79DMF     H5 1435   2.420   3.344   0.872  1.8804 -0.4228 -0.2215
   79DMF     H6 1436   2.384   3.190   0.803  1.7863 -0.1013 -0.1566
   79DMF     H7 1437   2.156   3.162   0.836  2.4787 -0.5012 -0.2162
   80DMF     C1 1438   0.027   1.523   1.076 -0.0415 -0.1146  0.0584
   80DMF     N1 1439   0.122   1.598   0.992  0.0373  0.0786  0.4301
   80DMF     C2 1440   0.259   1.548   0.991  0.5729  0.2230  0.4869
   80DMF     C3 1441   0.091   1.726   0.939 -0.2797  0.1505  0.3434
   80DMF     O1 1442  -0.010   1.783   0.961 -0.3930 -0.0893 -0.1800
   80DMF     H1 1443  -0.073   1.564   1.061 -0.5255 -0.6963  1.6454
   80DMF     H2 1444   0.050   1.532   1.182  1.9668  0.0987 -0.3792
   80DMF     H3 1445   0.039   1.422   1.034  1.5289 -0.2849  0.9084
   80DMF     H4 1446   0.321   1.606   1.061  0.1582  0.9927  0.2238
   80DMF     H5 1447   0.301   1.548   0.889 -0.7302 -0.7202 -0.0632
   80DMF     H6 1448   0.262   1.443   1.022  0.8015  0.3585  0.9333
   80DMF     H7 1449   0.170   1.780   0.885 -0.1714  1.0887  1.4225
   81DMF     C1 1450   3.222   3.321   1.116  0.1610 -0.1150  0.4772
   81DMF     N1 1451   3.273   3.438   1.041 -0.2978  0.2028  0.1309
   81DMF     C2 1452   3.251   3.560   1.104 -0.0066 -0.5184  0.3210
   81DMF     C3 1453   3.377   3.424   0.948 -0.4543 -0.1319  0.1675
   81DMF     O1 1454   3.404   3.311   0.908 -0.4190 -0.4152 -0.8586
   81DMF     H1 1455   3.122   3.339   1.157  0.0917  1.2804 -0.2978
   81DMF     H2 1456   3.295   3.285   1.190  0.7515  1.1054  0.4970
   81DMF     H3 1457   3.216   3.239   1.043 -3.1295  0.4435  0.0628
   81DMF     H4 1458   3.335   3.630   1.110 -1.9082  1.7874  0.6768
   81DMF     H5 1459   3.217   3.530   1.204 -0.8544  0.0781  0.2183
   81DMF     H6 1460   3.165   3.601   1.049  0.9435  2.8114  1.2288
   81DMF     H7 1461   3.426   3.517   0.916  0.2502  0.0231  1.6797
   82DMF     C1 1462   0.850   2.584   1.173 -0.6502  0.1229 -0.2424
   82DMF     N1 1463   0.752   2.624   1.069  0.2320 -0.3182  0.3126
   82DMF     C2 1464   0.790   2.666   0.932  0.0298  0.2210  0.0559
   82DMF     C3 1465   0.619   2.659   1.109  0.5564  0.3357 -0.1643
   82DMF     O1 1466   0.585   2.649   1.222  0.0521 -0.6124  0.5347
   82DMF     H1 1467   0.950   2.576   1.129 -1.7192 -2.9246 -2.2542
   82DMF     H2 1468   0.813   2.490   1.214 -0.1761 -0.2116 -0.5725
   82DMF     H3 1469   0.846   2.658   1.253 -0.3727  0.0676 -0.1763
   82DMF     H4 1470   0.866   2.745   0.935  0.2843  0.0555 -1.9240
   82DMF     H5 1471   0.700   2.709   0.887 -0.1628  1.0748  1.2202
   82DMF     H6 1472   0.819   2.580   0.870 -0.2470  1.6003 -2.0384
   82DMF     H7 1473   0.549   2.696   1.031  0.6533  1.1011  0.1128
   83DMF     C1 1474   2.630   0.028   1.167 -0.1141  0.6168 -0.0082
   83DMF     N1 1475   2.729   0.118   1.103  0.5065 -0.5286 -0.3510
   83DMF     C2 1476   2.870   0.128   1.159 -0.0956  0.6885 -0.3891
   83DMF     C3 1477   2.708   0.169   0.976  0.2447 -0.0533 -0.2991
   83DMF     O1 1478   2.610   0.137   0.904  0.4799 -0.1260  0.2450
   83DMF     H1 1479   2.539   0.086   1.189  0.1539  1.1244 -0.2133
   83DMF     H2 1480   2.672  -0.014   1.259 -1.6245 -0.0679  0.3685
   83DMF     H3 1481   2.595  -0.049   1.098 -1.9916  1.9211 -0.5427
   83DMF     H4 1482   2.855   0.126   1.267 -0.8865  0.8066 -0.4905
   83DMF     H5 1483   2.920   0.213   1.111  2.1877  0.2397  1.1572
   83DMF     H6 1484   2.919   0.039   1.119  0.1243  1.0063 -0.8383
   83DMF     H7 1485   2.785   0.246   0.953 -0.1458  0.3012 -0.4247
   84DMF     C1 1486   0.203   1.646   0.542  0.3610  0.5414 -0.1886
   84DMF     N1 1487   0.081   1.718   0.586  1.0593 -0.0054 -0.0530
   84DMF     C2 1488  -0.042   1.641   0.612 -1.2126 -0.3827  0.2036
   84DMF     C3 1489   0.099   1.854   0.636  0.1709 -0.0518 -0.2224
   84DMF     O1 1490   0.213   1.904   0.638  0.2461 -0.0140 -0.3564
   84DMF     H1 1491   0.264   1.610   0.626 -0.4704 -2.3771 -0.7786
   84DMF     H2 1492   0.268   1.722   0.497  0.3271 -0.6916 -2.3792
   84DMF     H3 1493   0.166   1.568   0.474  0.7720  0.2355 -0.0654
   84DMF     H4 1494  -0.094   1.623   0.517 -1.4269  1.2612 -0.0042
   84DMF     H5 1495  -0.107   1.688   0.686 -0.7350 -1.8236  1.5554
   84DMF     H6 1496  -0.021   1.539   0.648  0.3645 -0.0971  0.1486
   84DMF     H7 1497   0.006   1.906   0.666  1.1268  0.9096  1.1242
   85DMF     C1 1498   2.316   2.342   1.138 -0.1929  0.0651  0.1224
   85DMF     N1 1499   2.282   2.476   1.123  0.4511 -0.1526 -0.1399
   85DMF     C2 1500   2.290   2.567   1.235 -0.4628  0.7263  0.4513
   85DMF     C3 1501   2.282   2.531   0.994 -0.3272 -0.0615 -0.8762
   85DMF     O1 1502   2.313   2.467   0.891  0.2129  0.3941 -0.4432
   85DMF     H1 1503   2.383   2.307   1.058 -0.6279  1.4075 -0.8354
   85DMF     H2 1504   2.220   2.289   1.139 -1.5139  2.4067  0.4605
   85DMF     H3 1505   2.379   2.335   1.228 -0.8850 -1.7135  0.4810
   85DMF     H4 1506   2.225   2.653   1.216  0.7674  1.8768  1.3306
   85DMF     H5 1507   2.394   2.600   1.232 -0.9961  2.3992 -0.1019
   85DMF     H6 1508   2.270   2.514   1.329 -1.1148  1.1730  0.5703
   85DMF     H7 1509   2.262   2.640   0.992 -1.1552 -0.2231 -2.2215
   86DMF     C1 1510   0.481   3.167   0.279 -0.5136  0.4465  0.0391
   86DMF     N1 1511   0.407   3.278   0.218 -1.0060 -0.2938  0.1770
   86DMF     C2 1512   0.442   3.318   0.076 -0.1435  0.3239 -0.0261
   86DMF     C3 1513   0.331   3.366   0.304  0.1893 -0.2818  0.3879
   86DMF     O1 1514   0.292   3.337   0.417  0.6017 -1.0063  0.1460
   86DMF     H1 1515   0.588   3.188   0.274  0.2750 -3.5748 -3.0930
   86DMF     H2 1516   0.457   3.075   0.224  2.6719 -0.2269 -0.2970
   86DMF     H3 1517   0.450   3.142   0.381  0.0250  0.8826  0.3111
   86DMF     H4 1518   0.507   3.406   0.075  0.6439 -0.2484 -0.4382
   86DMF     H5 1519   0.348   3.352   0.029 -0.9690  1.4103  2.3641
   86DMF     H6 1520   0.482   3.229   0.026  0.5816  1.5139 -1.6261
   86DMF     H7 1521   0.298   3.462   0.261  0.3634 -1.2254 -1.9102
   87DMF     C1 1522   0.773   1.987   0.131  0.1944  0.3893  0.0305
   87DMF     N1 1523   0.878   1.963   0.229  0.5078  0.0048 -0.2288
   87DMF     C2 1524   0.878   1.835   0.313 -0.0209 -0.8232 -0.3968
   87DMF     C3 1525   0.993   2.037   0.227 -0.4684  0.1948  0.8308
   87DMF     O1 1526   1.004   2.138   0.162 -0.6329  0.1509 -0.0531
   87DMF     H1 1527   0.690   1.915   0.134  0.3741  0.2535  1.6999
   87DMF     H2 1528   0.814   1.991   0.029  1.7349  1.6609  0.6811
   87DMF     H3 1529   0.724   2.082   0.154  0.8085  0.4638  1.0141
   87DMF     H4 1530   0.803   1.761   0.284 -1.3259  0.5036 -0.4236
   87DMF     H5 1531   0.846   1.844   0.418  1.3358 -0.3137 -0.0143
   87DMF     H6 1532   0.978   1.788   0.315 -0.4779 -1.7497  1.3635
   87DMF     H7 1533   1.062   2.003   0.306 -0.6885  1.2469  1.4976
   88DMF     C1 1534   0.273   1.923   1.520 -0.9032 -0.1029  0.1677
   88DMF     N1 1535   0.123   1.951   1.522 -0.4419 -0.2448 -0.1566
   88DMF     C2 1536   0.081   2.101   1.537 -0.1745  0.0039  0.8108
   88DMF     C3 1537   0.022   1.852   1.545 -0.2202  0.0238 -0.0403
   88DMF     O1 1538   0.051   1.733   1.553 -0.1699  0.1785  0.1269
   88DMF     H1 1539   0.297   1.835   1.581  1.0182  0.7779  0.7173
   88DMF     H2 1540   0.329   2.014   1.542 -0.5666 -0.1729 -0.3923
   88DMF     H3 1541   0.298   1.896   1.416 -0.0300 -1.2816  0.6699
   88DMF     H4 1542  -0.021   2.104   1.577 -1.4172 -2.5239 -1.9349
   88DMF     H5 1543   0.084   2.140   1.435 -2.7972  1.2548  1.1815
   88DMF     H6 1544   0.162   2.141   1.599  1.2374  0.5823 -1.3553
   88DMF     H7 1545  -0.081   1.890   1.532  0.0542  0.8510  0.1598
   89DMF     C1 1546   1.521   0.854   3.323 -0.1162 -0.1848 -0.4770
   89DMF     N1 1547   1.397   0.929   3.282  0.4884  0.4753  0.0739
   89DMF     C2 1548   1.332   0.884   3.161  0.4642 -0.4685 -0.1735
   89DMF     C3 1549   1.338   1.026   3.368 -0.3473  0.7411 -0.4920
   89DMF     O1 1550   1.387   1.063   3.477  0.4024  0.0728  0.5129
   89DMF     H1 1551   1.482   0.752   3.326 -2.9004  0.8088 -1.3143
   89DMF     H2 1552   1.561   0.881   3.422 -0.7630 -2.1892  0.3492
   89DMF     H3 1553   1.601   0.872   3.250 -0.6472 -0.7565 -1.1998
   89DMF     H4 1554   1.410   0.844   3.094  0.3468 -0.7461 -0.1483
   89DMF     H5 1555   1.273   0.963   3.113  1.1417  0.0630 -0.1278
   89DMF     H6 1556   1.279   0.791   3.187  0.8934 -1.1455 -1.6301
   89DMF     H7 1557   1.250   1.080   3.327 -0.8004  1.6390  1.5588
   90DMF     C1 1558   1.255   3.331   1.500  0.2454 -0.9981 -0.4551
   90DMF     N1 1559   1.356   3.404   1.420 -0.1979  0.5467 -0.5208
   90DMF     C2 1560   1.482   3.437   1.487  0.2837 -0.0410 -0.4061
   90DMF     C3 1561   1.358   3.411   1.277  0.3717  0.4391 -0.3384
   90DMF     O1 1562   1.263   3.379   1.203 -0.1610 -0.6424 -0.8479
   90DMF     H1 1563   1.189   3.400   1.555 -1.8776 -1.4699 -2.3238
   90DMF     H2 1564   1.300   3.260   1.570  2.6022  0.6800 -0.1914
   90DMF     H3 1565   1.186   3.275   1.436 -0.3248 -0.0596 -0.6728
   90DMF     H4 1566   1.514   3.538   1.458  0.1043 -0.1539 -1.0126
   90DMF     H5 1567   1.566   3.371   1.459 -0.1153 -0.6876 -0.0923
   90DMF     H6 1568   1.462   3.449   1.594  0.4172 -1.7076 -0.1750
   90DMF     H7 1569   1.454   3.452   1.241 -0.0358  0.4007 -1.4756
   91DMF     C1 1570   2.870   2.955   0.346 -0.5775  0.8819 -0.4525
   91DMF     N1 1571   2.920   2.863   0.451 -0.1131 -0.6430 -0.6075
   91DMF     C2 1572   3.027   2.774   0.418  0.6842  0.1746 -0.0174
   91DMF     C3 1573   2.852   2.860   0.576  0.4693 -0.5545  0.0437
   91DMF     O1 1574   2.750   2.917   0.603  0.5001  0.6632 -0.7913
   91DMF     H1 1575   2.764   2.958   0.319 -1.7415  0.8330  3.7866
   91DMF     H2 1576   2.925   2.946   0.251 -0.2428  1.6179 -0.3328
   91DMF     H3 1577   2.887   3.057   0.383  2.5492  0.2466  0.0525
   91DMF     H4 1578   3.115   2.798   0.479 -0.4082  1.1080  1.2201
   91DMF     H5 1579   3.055   2.783   0.312 -0.3972 -0.8281 -0.4031
   91DMF     H6 1580   2.992   2.672   0.442 -1.5274  1.1627  1.1393
   91DMF     H7 1581   2.897   2.791   0.650  0.2138 -0.7137  0.0518
   92DMF     C1 1582   0.287   0.078   0.794  0.6846  0.2543 -0.1815
   92DMF     N1 1583   0.375   0.096   0.907  0.2032 -0.5246 -0.5209
   92DMF     C2 1584   0.524   0.073   0.890  0.9214  1.0857 -0.2449
   92DMF     C3 1585   0.326   0.156   1.031  0.0141 -0.6131  0.3158
   92DMF     O1 1586   0.209   0.184   1.044 -0.9412  0.9926 -0.2483
   92DMF     H1 1587   0.218  -0.005   0.813  0.3292  0.6831  0.4141
   92DMF     H2 1588   0.344   0.044   0.707 -2.3674  0.5118 -2.3578
   92DMF     H3 1589   0.237   0.171   0.768  4.6235  1.9723 -2.0218
   92DMF     H4 1590   0.576   0.156   0.841  0.3531  0.2314 -2.3764
   92DMF     H5 1591   0.537  -0.019   0.831  2.6295  1.5991 -0.6964
   92DMF     H6 1592   0.570   0.061   0.988 -1.0606  0.7290  0.6692
   92DMF     H7 1593   0.391   0.158   1.120 -0.0642 -1.9234  0.4107
   93DMF     C1 1594   1.398   1.402   1.576 -0.0067 -0.3971 -0.2070
   93DMF     N1 1595   1.258   1.396   1.554  0.1360 -0.0140  0.4136
   93DMF     C2 1596   1.194   1.262   1.571 -0.2450 -0.2834  0.0311
   93DMF     C3 1597   1.176   1.507   1.541 -0.1693 -0.5897 -0.0037
   93DMF     O1 1598   1.224   1.622   1.547 -0.0287 -0.1024 -0.0192
   93DMF     H1 1599   1.427   1.496   1.623  1.2670 -0.0316 -1.6835
   93DMF     H2 1600   1.439   1.383   1.476  0.7287 -1.3902  0.2757
   93DMF     H3 1601   1.434   1.318   1.638 -0.8026 -0.5501  0.0611
   93DMF     H4 1602   1.094   1.267   1.617 -0.6472  0.5557 -0.9169
   93DMF     H5 1603   1.257   1.202   1.638 -0.0340  1.5277  1.5121
   93DMF     H6 1604   1.191   1.206   1.477  1.4146 -1.9105  0.9084
   93DMF     H7 1605   1.072   1.476   1.521 -0.0879 -0.5097 -0.5516
   94DMF     C1 1606   2.360   2.011   0.657 -0.1158  0.2088  0.1963
   94DMF     N1 1607   2.370   2.126   0.750  0.3779  0.3015 -0.3930
   94DMF     C2 1608   2.476   2.222   0.735 -0.5049 -0.9263 -0.0062
   94DMF     C3 1609   2.259   2.155   0.835  0.3734  0.0702  0.5625
   94DMF     O1 1610   2.158   2.086   0.847 -0.3802  0.3430 -0.1537
   94DMF     H1 1611   2.346   2.048   0.554  3.2935 -0.9528 -0.7788
   94DMF     H2 1612   2.282   1.940   0.686  1.1799 -0.8516  1.1634
   94DMF     H3 1613   2.455   1.956   0.661 -1.2449 -1.7938  0.0243
   94DMF     H4 1614   2.575   2.175   0.729 -1.0343 -2.3203  1.8057
   94DMF     H5 1615   2.470   2.287   0.823  1.2365  0.4761 -0.8734
   94DMF     H6 1616   2.462   2.278   0.641 -0.5991  1.6533  1.5043
   94DMF     H7 1617   2.283   2.245   0.894  1.5955 -0.5747  1.0726
   95DMF     C1 1618   0.347   2.820   1.558 -1.1336  0.5799  0.0725
   95DMF     N1 1619   0.251   2.926   1.531 -0.7709  0.3533  0.1816
   95DMF     C2 1620   0.273   3.055   1.586 -0.4792  0.0873 -0.2587
   95DMF     C3 1621   0.132   2.909   1.454  0.6367 -0.2686 -0.4546
   95DMF     O1 1622   0.108   2.803   1.402  0.0558 -0.6640  0.3188
   95DMF     H1 1623   0.302   2.733   1.608 -0.5194 -0.3249 -0.9430
   95DMF     H2 1624   0.428   2.856   1.622 -1.4596  0.1683  0.7292
   95DMF     H3 1625   0.386   2.781   1.463 -0.0827  0.2913  0.6183
   95DMF     H4 1626   0.269   3.135   1.511  2.2364  0.6301  0.1520
   95DMF     H5 1627   0.366   3.059   1.643  0.1469  0.6199 -1.3100
   95DMF     H6 1628   0.200   3.085   1.662 -1.0049 -0.3113 -0.5997
   95DMF     H7 1629   0.080   3.003   1.430  1.1459 -0.1471 -1.1176
   96DMF     C1 1630   1.735   0.395   0.576 -0.9722 -0.0090 -0.1607
   96DMF     N1 1631   1.870   0.360   0.625 -0.0753  0.3026  0.0143
   96DMF     C2 1632   1.878   0.282   0.742 -0.3174  0.3836  0.4935
   96DMF     C3 1633   1.980   0.393   0.558 -0.3663 -0.3200  0.1928
   96DMF     O1 1634   1.985   0.460   0.459 -0.1658 -0.5976 -0.6433
   96DMF     H1 1635   1.720   0.350   0.477 -1.3463 -0.8440  0.2653
   96DMF     H2 1636   1.705   0.500   0.572  0.0673  0.3489  1.3674
   96DMF     H3 1637   1.663   0.336   0.635  0.2755 -0.9869  0.4110
   96DMF     H4 1638   1.858   0.342   0.831 -0.5251 -0.7750  1.2286
   96DMF     H5 1639   1.981   0.248   0.755 -0.2750 -0.5597 -2.0221
   96DMF     H6 1640   1.799   0.205   0.743 -0.4638  0.4706 -1.4005
   96DMF     H7 1641   2.071   0.349   0.604 -0.6355  0.7937  1.8180
   97DMF     C1 1642   2.703   1.199   1.439 -0.0976 -0.3911 -0.1863
   97DMF     N1 1643   2.686   1.082   1.522  0.2512 -0.2978  0.5159
   97DMF     C2 1644   2.552   1.054   1.574  0.0945 -0.6457 -0.3012
   97DMF     C3 1645   2.795   1.007   1.561 -1.0073 -0.2425 -0.4902
   97DMF     O1 1646   2.906   1.038   1.536 -0.5042 -0.3363 -0.0612
   97DMF     H1 1647   2.614   1.203   1.374  0.4441  2.8450 -0.7929
   97DMF     H2 1648   2.787   1.180   1.371  0.1355 -0.7446  0.1932
   97DMF     H3 1649   2.719   1.286   1.502  2.3028 -0.9990  0.0667
   97DMF     H4 1650   2.481   1.036   1.492  1.6176  1.5277 -2.1584
   97DMF     H5 1651   2.525   1.148   1.622  2.3116 -1.2872  2.3088
   97DMF     H6 1652   2.555   0.967   1.641  2.7609  0.0762  0.5483
   97DMF     H7 1653   2.760   0.926   1.627 -1.9864  1.1858  0.7806
   98DMF     C1 1654   3.355   0.486   1.134  0.2308 -0.0665 -0.9907
   98DMF     N1 1655   3.420   0.615   1.157 -0.4235 -0.4672 -0.0182
   98DMF     C2 1656   3.406   0.720   1.055  1.2031  0.9908  0.7522
   98DMF     C3 1657   3.486   0.646   1.275  0.0242 -0.0261  0.1595
   98DMF     O1 1658   3.500   0.567   1.367 -0.3174  0.8825  0.0404
   98DMF     H1 1659   3.397   0.404   1.193  0.7788 -0.2962 -1.6932
   98DMF     H2 1660   3.359   0.448   1.031 -0.4117 -3.1177  0.0687
   98DMF     H3 1661   3.247   0.492   1.155  0.5651 -1.4059  1.2043
   98DMF     H4 1662   3.485   0.711   0.979 -1.5989  1.0513 -2.2539
   98DMF     H5 1663   3.398   0.823   1.092 -1.0654  1.1814 -0.1942
   98DMF     H6 1664   3.312   0.690   1.007  0.8820  0.7408  1.5376
   98DMF     H7 1665   3.518   0.752   1.279 -1.2097  0.2964  2.1227
   99DMF     C1 1666   3.207   2.361   1.503  0.0482  1.0050 -0.1689
   99DMF     N1 1667   3.304   2.473   1.472  0.0431 -0.1416 -0.8802
   99DMF     C2 1668   3.443   2.470   1.507 -0.4893  0.0182  0.5657
   99DMF     C3 1669   3.257   2.579   1.396  0.2454 -0.1102  0.6717
   99DMF     O1 1670   3.140   2.602   1.369  0.7504  0.0636  0.1498
   99DMF     H1 1671   3.243   2.278   1.564 -1.0944  0.5375 -0.1151
   99DMF     H2 1672   3.162   2.329   1.408  0.9748 -0.5884 -0.0962
   99DMF     H3 1673   3.129   2.409   1.563 -1.7902  0.6109 -2.1628
   99DMF     H4 1674   3.494   2.399   1.440 -1.9200 -1.9732  1.5144
   99DMF     H5 1675   3.463   2.456   1.614  0.4644  1.5281  0.5950
   99DMF     H6 1676   3.490   2.567   1.487 -0.2301 -0.4672 -1.1984
   99DMF     H7 1677   3.332   2.658   1.379  1.9598 -2.2530 -2.1235
  100DMF     C1 1678   3.023   0.331   0.520 -0.8837  0.7562 -0.2981
  100DMF     N1 1679   2.971   0.460   0.465 -0.3258  0.1061  0.2687
  100DMF     C2 1680   3.071   0.566   0.436 -0.3457 -0.2198 -0.3792
  100DMF     C3 1681   2.831   0.480   0.427  0.7277 -1.1552  0.9305
  100DMF     O1 1682   2.745   0.396   0.432 -0.1910  0.7624 -0.2852
  100DMF     H1 1683   3.012   0.245   0.452 -1.4139  0.1724  0.5218
  100DMF     H2 1684   2.976   0.306   0.616 -1.4903  0.4676 -0.6672
  100DMF     H3 1685   3.130   0.349   0.532 -1.2502  2.6060  0.2919
  100DMF     H4 1686   3.119   0.552   0.338 -0.0374 -0.0608 -0.2501
  100DMF     H5 1687   3.147   0.564   0.515 -1.3425 -1.5618  0.5552
  100DMF     H6 1688   3.023   0.664   0.450  1.6107  0.6345  0.6194
  100DMF     H7 1689   2.818   0.582   0.385  2.2375 -0.9918  0.8206
  101DMF     C1 1690   1.389   2.142   0.610 -0.4582 -0.1813  0.3893
  101DMF     N1 1691   1.446   2.249   0.683  0.6095  0.0267 -0.6645
  101DMF     C2 1692   1.372   2.325   0.781 -0.0803 -0.3266  0.0623
  101DMF     C3 1693   1.574   2.295   0.642 -0.4527  0.0754  0.1575
  101DMF     O1 1694   1.637   2.241   0.551  0.0799  0.4470 -0.3397
  101DMF     H1 1695   1.463   2.066   0.581 -0.1498 -0.6774  2.4028
  101DMF     H2 1696   1.347   2.182   0.517  0.7586  0.7288  0.2129
  101DMF     H3 1697   1.317   2.079   0.664 -1.5570 -0.1649 -1.0308
  101DMF     H4 1698   1.367   2.423   0.733  1.4901  1.3548  3.1880
  101DMF     H5 1699   1.427   2.322   0.875  1.2752 -0.0288 -0.7135
  101DMF     H6 1700   1.275   2.280   0.805 -0.5491  0.1307 -0.9339
  101DMF     H7 1701   1.616   2.376   0.705  0.4684 -0.8637  0.7617
  102DMF     C1 1702   1.192   2.515   1.330  0.1292 -0.2498 -0.2207
  102DMF     N1 1703   1.313   2.526   1.413  0.4705 -0.6420 -0.2387
  102DMF     C2 1704   1.289   2.554   1.555 -0.4516 -0.3783 -0.4301
  102DMF     C3 1705   1.437   2.537   1.356 -0.4163  0.5151 -0.5990
  102DMF     O1 1706   1.459   2.537   1.236  0.2631 -0.5154 -0.3072
  102DMF     H1 1707   1.218   2.460   1.239  4.4528 -1.4826  1.6711
  102DMF     H2 1708   1.156   2.615   1.300  1.4508  0.9375  2.0439
  102DMF     H3 1709   1.114   2.455   1.379 -0.7079  0.8483 -0.1921
  102DMF     H4 1710   1.343   2.483   1.619 -0.4172  1.6141  1.8002
  102DMF     H5 1711   1.184   2.536   1.581 -0.1383 -0.1351  1.0266
  102DMF     H6 1712   1.304   2.660   1.580 -1.6111 -0.7242  1.8261
  102DMF     H7 1713   1.521   2.536   1.427 -0.4491 -1.3100 -0.5501
  103DMF     C1 1714   2.282   3.372   1.574 -0.5038 -0.5547  0.2441
  103DMF     N1 1715   2.313   3.229   1.538 -0.2731 -0.3608 -0.4143
  103DMF     C2 1716   2.449   3.204   1.506  0.5879  0.3205  0.1230
  103DMF     C3 1717   2.212   3.148   1.497 -0.7684 -0.0871  0.0534
  103DMF     O1 1718   2.097   3.180   1.510  0.4336 -0.0635 -0.9235
  103DMF     H1 1719   2.190   3.372   1.633 -0.1891  0.4677  0.7502
  103DMF     H2 1720   2.262   3.433   1.485  1.2622  1.1311  0.9820
  103DMF     H3 1721   2.358   3.414   1.641 -1.5095 -0.9057  1.6387
  103DMF     H4 1722   2.514   3.269   1.566  1.5232 -1.4240  1.0490
  103DMF     H5 1723   2.470   3.234   1.403 -1.4969 -2.5694 -1.2191
  103DMF     H6 1724   2.467   3.098   1.525 -0.6947 -0.1791 -1.3905
  103DMF     H7 1725   2.249   3.060   1.442  0.8352 -0.0638  1.0749
  104DMF     C1 1726   1.613   0.492   0.251 -0.2907 -0.4111 -0.0257
  104DMF     N1 1727   1.512   0.423   0.161  0.5623  0.5616 -0.7045
  104DMF     C2 1728   1.462   0.482   0.040 -0.4577 -0.4792  0.4191
  104DMF     C3 1729   1.473   0.296   0.198  0.5142  0.8916 -0.2810
  104DMF     O1 1730   1.527   0.239   0.293  0.0600 -0.7008  0.3191
  104DMF     H1 1731   1.698   0.422   0.252 -0.2140 -0.3120  1.5538
  104DMF     H2 1732   1.579   0.520   0.351 -0.8943  0.7922 -0.5663
  104DMF     H3 1733   1.650   0.586   0.208  0.0557  0.5382  2.2815
  104DMF     H4 1734   1.532   0.560   0.008 -0.9718 -0.2275 -0.1093
  104DMF     H5 1735   1.368   0.537   0.059 -0.1370  0.9032 -1.7364
  104DMF     H6 1736   1.448   0.418  -0.048 -1.2143  2.7032 -1.8611
  104DMF     H7 1737   1.394   0.250   0.135 -0.0813  1.8593 -0.2615
  105DMF     C1 1738   1.245   2.164   1.533  0.2813 -0.4525  0.1129
  105DMF     N1 1739   1.241   2.016   1.536  0.1191 -1.0571 -0.4868
  105DMF     C2 1740   1.369   1.941   1.545 -0.9098 -0.1213  0.1729
  105DMF     C3 1741   1.120   1.953   1.547  0.0686 -0.2281 -0.0782
  105DMF     O1 1742   1.010   1.997   1.521 -0.1251 -0.0856 -0.0952
  105DMF     H1 1743   1.145   2.205   1.546 -0.3713 -1.3093 -1.9551
  105DMF     H2 1744   1.276   2.198   1.434  0.5539 -1.3831 -0.1288
  105DMF     H3 1745   1.310   2.199   1.614 -0.4263  0.5051  0.2722
  105DMF     H4 1746   1.443   1.986   1.612  1.7509  0.1926 -2.8222
  105DMF     H5 1747   1.420   1.935   1.448 -1.1860 -0.0236  0.0240
  105DMF     H6 1748   1.347   1.837   1.572 -1.9072  0.1293  0.3359
  105DMF     H7 1749   1.140   1.848   1.573 -1.4745 -0.8265 -1.2894
  106DMF     C1 1750   1.301   1.854   3.365  0.2190 -0.8605 -0.0426
  106DMF     N1 1751   1.415   1.759   3.366  0.0466 -0.2179 -0.5625
  106DMF     C2 1752   1.540   1.818   3.397 -0.6634  0.0966  0.2409
  106DMF     C3 1753   1.401   1.626   3.318  0.4112  0.0636 -0.0306
  106DMF     O1 1754   1.292   1.579   3.285  0.2858  0.5538  0.1543
  106DMF     H1 1755   1.319   1.957   3.396 -1.4914 -0.7382  0.5914
  106DMF     H2 1756   1.237   1.811   3.442  0.9326 -0.9756  0.4929
  106DMF     H3 1757   1.262   1.851   3.262 -1.1096  0.4585  0.4103
  106DMF     H4 1758   1.621   1.760   3.351  0.2467  0.6234  1.1629
  106DMF     H5 1759   1.566   1.812   3.503 -0.8328  1.4086  0.3646
  106DMF     H6 1760   1.544   1.924   3.368  1.9835  0.1032  0.5731
  106DMF     H7 1761   1.500   1.579   3.302  1.3525  1.6243  1.0098
  107DMF     C1 1762   2.105   1.128   1.544 -0.5197 -0.2503 -0.4352
  107DMF     N1 1763   2.100   1.259   1.483  0.1305 -0.5681 -0.0280
  107DMF     C2 1764   2.200   1.357   1.519  0.3139 -0.1997  0.3479
  107DMF     C3 1765   2.024   1.277   1.360  0.5346  0.0226 -0.3883
  107DMF     O1 1766   1.964   1.187   1.308 -0.3250  0.2244  0.0981
  107DMF     H1 1767   2.038   1.115   1.629 -0.2316 -0.6834 -0.2741
  107DMF     H2 1768   2.208   1.111   1.579 -0.4167 -0.2869 -0.7546
  107DMF     H3 1769   2.090   1.043   1.476  1.2209 -0.1924 -0.9263
  107DMF     H4 1770   2.195   1.438   1.444 -0.5952 -0.2756  0.3246
  107DMF     H5 1771   2.300   1.319   1.496  0.0100  0.1907 -1.7510
  107DMF     H6 1772   2.199   1.397   1.621 -0.7656  1.9719 -0.4770
  107DMF     H7 1773   2.025   1.379   1.319  0.7066 -0.7469 -2.3503
  108DMF     C1 1774   2.868   2.286   0.902 -0.4203 -0.4510 -0.1061
  108DMF     N1 1775   2.830   2.344   1.030  0.1631  0.2757 -0.1965
  108DMF     C2 1776   2.709   2.425   1.034 -0.5534  0.3979  0.4121
  108DMF     C3 1777   2.919   2.327   1.136 -0.0997 -0.0868  0.4228
  108DMF     O1 1778   3.027   2.266   1.136 -0.6829 -0.2708  0.3070
  108DMF     H1 1779   2.789   2.240   0.841 -0.1475 -0.6882 -0.2771
  108DMF     H2 1780   2.933   2.202   0.928 -0.4131  0.2458  2.2777
  108DMF     H3 1781   2.921   2.362   0.843 -0.1774  0.0739  0.7774
  108DMF     H4 1782   2.692   2.459   0.931 -1.6470 -1.4077 -0.0315
  108DMF     H5 1783   2.716   2.501   1.112 -0.4090  0.6336  0.1681
  108DMF     H6 1784   2.631   2.353   1.060  0.5157 -1.2021 -0.6629
  108DMF     H7 1785   2.872   2.366   1.229 -1.9117  1.3045 -1.0283
  109DMF     C1 1786   1.016   1.371   0.795  0.1588  1.0620  0.0950
  109DMF     N1 1787   1.054   1.232   0.756 -0.3089 -0.2766 -1.0147
  109DMF     C2 1788   0.966   1.149   0.683 -0.2391 -0.2604 -0.2480
  109DMF     C3 1789   1.148   1.168   0.841 -0.6633  0.6469 -0.7699
  109DMF     O1 1790   1.236   1.227   0.910  0.2209 -0.1502 -0.6936
  109DMF     H1 1791   1.086   1.440   0.746  0.1168 -0.2037 -1.7837
  109DMF     H2 1792   1.015   1.374   0.905 -1.9193 -0.3549  0.1330
  109DMF     H3 1793   0.918   1.395   0.751  0.3092  1.5576  0.0229
  109DMF     H4 1794   1.013   1.057   0.646 -1.6579 -1.9372  1.8971
  109DMF     H5 1795   0.941   1.218   0.602  2.0805 -0.2103 -0.9364
  109DMF     H6 1796   0.875   1.129   0.742 -0.8465  0.6800 -0.8703
  109DMF     H7 1797   1.151   1.057   0.837 -2.6353  0.5595 -0.0968
  110DMF     C1 1798   1.565   3.271   0.983  0.2386  0.1400  0.2225
  110DMF     N1 1799   1.547   3.323   0.846 -0.4715 -0.5347  0.3949
  110DMF     C2 1800   1.523   3.468   0.835 -0.6892 -0.5166  0.7654
  110DMF     C3 1801   1.550   3.238   0.736  0.2874  0.9163 -0.0890
  110DMF     O1 1802   1.577   3.118   0.756  0.5536  0.1959  0.5859
  110DMF     H1 1803   1.534   3.167   0.992 -1.3776  0.5742 -0.1471
  110DMF     H2 1804   1.496   3.329   1.047 -2.3866 -0.4456 -1.9643
  110DMF     H3 1805   1.669   3.290   1.013  0.6030 -0.7979 -0.4304
  110DMF     H4 1806   1.616   3.515   0.799 -2.5765  0.9261 -2.4053
  110DMF     H5 1807   1.495   3.520   0.928  1.0819  0.5085  0.7434
  110DMF     H6 1808   1.444   3.478   0.760  1.5800  0.2053 -1.5855
  110DMF     H7 1809   1.521   3.285   0.640  1.2853 -0.0094 -0.8625
  111DMF     C1 1810   1.038   3.273   0.442 -1.1151  0.6305 -0.3401
  111DMF     N1 1811   1.169   3.247   0.380 -0.1663 -0.2297 -0.2249
  111DMF     C2 1812   1.177   3.240   0.233  0.2517 -0.5525  0.5412
  111DMF     C3 1813   1.284   3.274   0.454 -0.0310 -0.2708  1.0074
  111DMF     O1 1814   1.289   3.280   0.579 -0.2055 -0.2465  0.0867
  111DMF     H1 1815   0.983   3.186   0.404  0.1058 -0.3838  0.1691
  111DMF     H2 1816   0.989   3.370   0.428 -1.4111  0.8386  1.9427
  111DMF     H3 1817   1.046   3.247   0.548 -1.6073 -0.3192 -0.5296
  111DMF     H4 1818   1.148   3.140   0.198  1.5335 -0.7243 -0.0670
  111DMF     H5 1819   1.282   3.252   0.201  0.6191  0.1329  1.9650
  111DMF     H6 1820   1.110   3.313   0.188  1.3156 -1.7460 -3.1389
  111DMF     H7 1821   1.377   3.288   0.395 -1.4758 -1.9830 -1.7957
  112DMF     C1 1822   2.186   0.703   3.730 -0.8515 -0.1693 -0.2562
  112DMF     N1 1823   2.165   0.710   3.878 -0.0814 -0.4380 -0.0734
  112DMF     C2 1824   2.274   0.769   3.955 -0.6214 -0.5627  0.0902
  112DMF     C3 1825   2.042   0.663   3.942  0.5233 -0.2058  0.1241
  112DMF     O1 1826   1.947   0.627   3.883 -0.2687  0.3854  0.2018
  112DMF     H1 1827   2.140   0.610   3.694  1.1171 -0.1897 -2.9487
  112DMF     H2 1828   2.295   0.700   3.720 -0.9225 -3.3385 -0.5613
  112DMF     H3 1829   2.151   0.793   3.679  1.0671  1.5225  1.3379
  112DMF     H4 1830   2.246   0.872   3.981 -0.9544 -0.5512 -0.3260
  112DMF     H5 1831   2.372   0.775   3.906 -0.1276 -0.4855  1.0614
  112DMF     H6 1832   2.277   0.708   4.046  1.6180 -0.6275  0.0054
  112DMF     H7 1833   2.053   0.670   4.052  0.0268  1.9174  0.0653
  113DMF     C1 1834   0.697   1.389   0.890  0.4629  0.3955  0.7001
  113DMF     N1 1835   0.694   1.531   0.857  0.3129 -0.3285  0.1018
  113DMF     C2 1836   0.799   1.621   0.900  0.4234  0.1192  0.0833
  113DMF     C3 1837   0.587   1.571   0.775  0.6299 -0.4240 -0.4751
  113DMF     O1 1838   0.488   1.497   0.753 -0.4676 -0.2780 -0.4004
  113DMF     H1 1839   0.783   1.360   0.952 -0.1955  0.7046  1.7755
  113DMF     H2 1840   0.692   1.326   0.800 -0.8369  0.8413  0.4498
  113DMF     H3 1841   0.618   1.365   0.962  0.5338  0.9656  0.9698
  113DMF     H4 1842   0.823   1.689   0.817 -0.7550  1.0472  0.4868
  113DMF     H5 1843   0.888   1.563   0.929  0.2655 -2.0281 -3.5380
  113DMF     H6 1844   0.766   1.687   0.981 -4.6507 -0.8052 -1.0686
  113DMF     H7 1845   0.596   1.676   0.740  2.4183 -0.8426 -1.3016
  114DMF     C1 1846   2.815   2.174   1.557 -0.0058  0.6884  0.4138
  114DMF     N1 1847   2.853   2.035   1.540 -0.0449  0.2825 -0.0291
  114DMF     C2 1848   2.748   1.931   1.546  0.1563 -0.2764  0.2985
  114DMF     C3 1849   2.981   1.988   1.554 -0.1725 -0.3651  0.0166
  114DMF     O1 1850   3.084   2.054   1.544  0.5452  0.3666 -0.4397
  114DMF     H1 1851   2.722   2.188   1.501 -0.0116 -3.6500 -0.8106
  114DMF     H2 1852   2.900   2.239   1.530  1.1347 -0.7711  0.4271
  114DMF     H3 1853   2.797   2.190   1.664  1.4466  0.6981  0.6745
  114DMF     H4 1854   2.650   1.977   1.529 -0.4451 -1.6509 -0.0186
  114DMF     H5 1855   2.743   1.881   1.643 -1.1343  0.4909  0.6364
  114DMF     H6 1856   2.761   1.856   1.467  0.8920 -1.0598  1.1523
  114DMF     H7 1857   2.988   1.878   1.558 -1.2359 -0.4186  0.7954
  115DMF     C1 1858   2.054   2.867   1.548 -0.0393  0.7097  0.0481
  115DMF     N1 1859   1.998   2.734   1.545 -0.2009  0.7680 -0.3050
  115DMF     C2 1860   1.850   2.725   1.517 -0.4805 -0.2198  0.3718
  115DMF     C3 1861   2.069   2.615   1.571  0.0234  0.1879 -0.5365
  115DMF     O1 1862   2.193   2.613   1.574  0.1976  0.6038  0.3105
  115DMF     H1 1863   2.078   2.900   1.446 -0.1639  1.5224  0.2800
  115DMF     H2 1864   2.144   2.874   1.611 -1.6319  0.8925  2.3805
  115DMF     H3 1865   1.978   2.929   1.597  0.6653  1.6086 -0.0002
  115DMF     H4 1866   1.810   2.810   1.574 -2.4753 -0.5115 -0.5423
  115DMF     H5 1867   1.804   2.628   1.538  0.7120 -0.7588  0.5704
  115DMF     H6 1868   1.837   2.750   1.411 -0.7945 -3.2070 -0.3511
  115DMF     H7 1869   2.004   2.530   1.597  0.2999 -0.0652 -0.6680
  116DMF     C1 1870   2.320   0.024   0.575  0.4602 -0.2985  0.1234
  116DMF     N1 1871   2.391   0.137   0.642  0.7881 -0.8830 -0.5952
  116DMF     C2 1872   2.519   0.172   0.586 -0.7682 -0.0406  0.0407
  116DMF     C3 1873   2.326   0.196   0.759 -0.2075 -0.0044 -0.5958
  116DMF     O1 1874   2.216   0.154   0.801 -0.0993 -0.0426 -0.4715
  116DMF     H1 1875   2.236   0.078   0.528  0.2768  1.7946  2.6873
  116DMF     H2 1876   2.289  -0.040   0.658  0.0675 -0.4629 -0.1501
  116DMF     H3 1877   2.380  -0.035   0.505  1.4222 -2.2400  2.5150
  116DMF     H4 1878   2.610   0.123   0.622  1.4597  1.8692 -2.8017
  116DMF     H5 1879   2.539   0.276   0.614 -0.9942  0.0406 -0.0956
  116DMF     H6 1880   2.509   0.170   0.476 -1.4505 -0.7239  0.1078
  116DMF     H7 1881   2.388   0.279   0.798 -0.8230 -0.5256  1.6060
  117DMF     C1 1882   0.672   0.893   1.192  0.3821 -0.1464 -0.1758
  117DMF     N1 1883   0.697   1.039   1.167 -0.1527  0.0123  0.3280
  117DMF     C2 1884   0.608   1.140   1.229 -0.1278  0.1178 -0.1680
  117DMF     C3 1885   0.807   1.080   1.084  0.1998 -0.1619 -0.0754
  117DMF     O1 1886   0.872   0.996   1.018  0.4118 -0.1752  0.6631
  117DMF     H1 1887   0.577   0.900   1.247 -0.7869  1.7309 -2.3424
  117DMF     H2 1888   0.755   0.843   1.244  1.2514  2.3589  0.9278
  117DMF     H3 1889   0.654   0.862   1.088 -1.3802 -1.2526  0.4407
  117DMF     H4 1890   0.598   1.115   1.335  0.9805  0.0399 -0.0720
  117DMF     H5 1891   0.514   1.128   1.174 -0.1554 -1.3414  0.1940
  117DMF     H6 1892   0.663   1.234   1.215  1.6625 -0.6996  1.1594
  117DMF     H7 1893   0.818   1.190   1.085 -0.8924  0.0224 -2.9963
  118DMF     C1 1894   2.207   0.310   1.135 -0.2068 -0.1275  0.2765
  118DMF     N1 1895   2.307   0.410   1.168  0.2494 -0.4101 -0.0924
  118DMF     C2 1896   2.451   0.368   1.192 -0.4685  0.2672 -0.6538
  118DMF     C3 1897   2.272   0.546   1.154  0.1550  0.4260  0.6644
  118DMF     O1 1898   2.165   0.587   1.111 -0.0213  0.7089  0.3178
  118DMF     H1 1899   2.224   0.220   1.196  0.8524  0.9772  1.6376
  118DMF     H2 1900   2.234   0.283   1.032  0.7429  1.2175  0.1559
  118DMF     H3 1901   2.103   0.342   1.144  0.5027  2.7926 -1.3730
  118DMF     H4 1902   2.450   0.284   1.262 -1.3823  1.3977  0.7172
  118DMF     H5 1903   2.510   0.446   1.241 -2.6175  1.0367  0.7567
  118DMF     H6 1904   2.498   0.336   1.098 -0.6872  2.0355 -1.3774
  118DMF     H7 1905   2.362   0.604   1.184  0.8188 -1.5725  2.7078
  119DMF     C1 1906   0.721   0.163   1.485 -0.3088 -0.4339  0.3073
  119DMF     N1 1907   0.815   0.059   1.440 -0.7086  0.3380 -0.1194
  119DMF     C2 1908   0.918   0.006   1.529  0.3783  0.1902  0.1439
  119DMF     C3 1909   0.815   0.024   1.303  0.0884 -0.2521  0.1219
  119DMF     O1 1910   0.740   0.075   1.223  0.1978 -0.3943 -0.4660
  119DMF     H1 1911   0.692   0.164   1.591 -0.7936  2.1561  0.1952
  119DMF     H2 1912   0.628   0.159   1.428  0.1643 -0.9393 -0.4326
  119DMF     H3 1913   0.765   0.263   1.476 -0.7741 -0.1659  0.9711
  119DMF     H4 1914   0.966   0.088   1.584  0.3577  0.8188 -0.7644
  119DMF     H5 1915   0.999  -0.052   1.482  2.3864  0.9542  2.5472
  119DMF     H6 1916   0.867  -0.063   1.598  0.0633  1.0202  0.7435
  119DMF     H7 1917   0.884  -0.060   1.285  0.1891  0.4201 -2.8186
  120DMF     C1 1918   3.360   2.250   1.192 -0.0676 -0.6135 -0.1535
  120DMF     N1 1919   3.362   2.099   1.200 -0.0766 -0.0460  0.5654
  120DMF     C2 1920   3.246   2.038   1.267 -0.2319  0.4006 -0.0895
  120DMF     C3 1921   3.464   2.019   1.151  0.1244 -0.5419 -0.0702
  120DMF     O1 1922   3.549   2.072   1.084 -0.2598  0.2663 -0.0580
  120DMF     H1 1923   3.269   2.294   1.236  0.4769 -1.7171  2.1593
  120DMF     H2 1924   3.376   2.282   1.089 -1.1811 -2.2568 -0.8604
  120DMF     H3 1925   3.448   2.292   1.243  0.3206 -1.0894 -0.4248
  120DMF     H4 1926   3.151   2.060   1.218 -0.8016  0.6807  1.1130
  120DMF     H5 1927   3.242   2.083   1.367 -1.7967 -0.0888  0.0816
  120DMF     H6 1928   3.255   1.929   1.277 -0.6037  0.4545  0.9884
  120DMF     H7 1929   3.457   1.917   1.192  0.7478 -0.9028 -0.8590
  121DMF     C1 1930   2.422   0.679   1.526 -0.0656  0.0078 -0.3447
  121DMF     N1 1931   2.299   0.608   1.546 -0.5482 -0.1519  0.3086
  121DMF     C2 1932   2.291   0.465   1.568 -0.0821 -0.1431 -0.5658
  121DMF     C3 1933   2.179   0.680   1.545  0.0938 -0.3994 -0.0570
  121DMF     O1 1934   2.180   0.800   1.533 -0.2996 -0.1308  0.4320
  121DMF     H1 1935   2.501   0.605   1.507 -1.0723 -0.9804 -0.7565
  121DMF     H2 1936   2.439   0.739   1.616  0.3177  1.1891 -1.1892
  121DMF     H3 1937   2.421   0.736   1.433 -0.3665  1.0802  0.3141
  121DMF     H4 1938   2.188   0.428   1.574  0.1084 -0.6866 -0.6313
  121DMF     H5 1939   2.358   0.434   1.649  2.1418  0.7174 -2.0261
  121DMF     H6 1940   2.342   0.424   1.480  2.0297  2.6103 -0.7001
  121DMF     H7 1941   2.087   0.620   1.533 -0.8324  0.5070  2.3403
  122DMF     C1 1942   1.599   2.203   1.385  0.6632  0.4964  0.4990
  122DMF     N1 1943   1.701   2.196   1.484  0.0515  0.4454  0.3852
  122DMF     C2 1944   1.764   2.066   1.500 -0.6266 -0.1553  0.2107
  122DMF     C3 1945   1.751   2.305   1.551 -0.0388  0.5503 -0.2507
  122DMF     O1 1946   1.708   2.419   1.532 -0.2944  0.1719 -0.2244
  122DMF     H1 1947   1.642   2.257   1.300 -1.0482  0.9840 -0.0918
  122DMF     H2 1948   1.504   2.243   1.426 -0.9010 -0.9330 -1.6380
  122DMF     H3 1949   1.569   2.104   1.349  0.0545  0.4054  1.2229
  122DMF     H4 1950   1.720   2.000   1.425 -1.8476  0.5993  0.2493
  122DMF     H5 1951   1.731   2.043   1.602 -2.8785 -1.1856 -0.7316
  122DMF     H6 1952   1.873   2.068   1.490 -0.5178  0.4755  1.3842
  122DMF     H7 1953   1.835   2.278   1.618  1.7706 -1.4280 -3.2118
  123DMF     C1 1954   0.322   2.513   1.242  0.2833  0.1249 -0.6584
  123DMF     N1 1955   0.358   2.384   1.190  0.2723  0.4303 -0.4588
  123DMF     C2 1956   0.415   2.374   1.059 -0.1080 -0.1699  0.0753
  123DMF     C3 1957   0.331   2.268   1.261  0.4265 -0.4072 -0.1011
  123DMF     O1 1958   0.294   2.271   1.380 -0.0679  0.5440  0.2061
  123DMF     H1 1959   0.328   2.580   1.156 -1.8178  1.0737 -0.0967
  123DMF     H2 1960   0.392   2.537   1.323  1.0587 -3.1648 -0.2579
  123DMF     H3 1961   0.220   2.511   1.282  0.4609  0.5867 -0.1812
  123DMF     H4 1962   0.450   2.474   1.030 -4.5680  1.5501  0.2960
  123DMF     H5 1963   0.342   2.328   0.991  1.7852  1.7865 -3.4617
  123DMF     H6 1964   0.503   2.308   1.062 -0.2141 -0.2984  0.3359
  123DMF     H7 1965   0.343   2.171   1.210 -1.0493 -1.4821  1.5440
  124DMF     C1 1966   0.277   0.997   1.146 -0.0243  0.2444  0.3197
  124DMF     N1 1967   0.366   0.914   1.062  0.8524 -0.0737  0.0111
  124DMF     C2 1968   0.416   0.971   0.926 -0.6613  0.0962  0.5738
  124DMF     C3 1969   0.393   0.788   1.103  0.1770 -0.0347 -0.8624
  124DMF     O1 1970   0.336   0.729   1.191  0.0059 -0.0720 -0.4302
  124DMF     H1 1971   0.295   1.102   1.120  0.3791  0.3579  1.0306
  124DMF     H2 1972   0.299   0.980   1.253 -0.5134  1.3406  0.5982
  124DMF     H3 1973   0.172   0.972   1.130 -0.0926  0.1757  0.8550
  124DMF     H4 1974   0.333   1.011   0.866  0.7173  1.4608 -0.4431
  124DMF     H5 1975   0.456   0.890   0.864 -1.1151 -0.3864  0.9015
  124DMF     H6 1976   0.492   1.049   0.933  0.3303 -0.9925  2.1453
  124DMF     H7 1977   0.468   0.743   1.036 -0.1637 -0.1700 -1.1605
  125DMF     C1 1978   0.258   1.615   0.171 -0.2740  0.1359 -0.7210
  125DMF     N1 1979   0.334   1.497   0.221 -0.2175 -0.3081  0.2323
  125DMF     C2 1980   0.456   1.521   0.314 -0.0481 -0.3289 -0.2552
  125DMF     C3 1981   0.293   1.370   0.188  0.2205  0.3064 -0.3731
  125DMF     O1 1982   0.197   1.358   0.107 -0.2313 -0.0996  0.3673
  125DMF     H1 1983   0.259   1.698   0.242 -1.5358  1.4157 -2.1766
  125DMF     H2 1984   0.150   1.595   0.165 -0.3931  1.0198 -1.5474
  125DMF     H3 1985   0.296   1.634   0.070 -1.1999 -0.1955 -1.1370
  125DMF     H4 1986   0.495   1.434   0.367  0.8417  0.7430  0.8789
  125DMF     H5 1987   0.428   1.596   0.390  0.4327 -1.1559  0.7401
  125DMF     H6 1988   0.540   1.561   0.256  0.0911 -2.6164 -1.6670
  125DMF     H7 1989   0.349   1.290   0.239  2.3562  2.9693  1.6127
  126DMF     C1 1990   3.198   0.090   1.546 -0.9725 -0.2323 -0.0806
  126DMF     N1 1991   3.317   0.183   1.525  0.5749  0.0791  0.0586
  126DMF     C2 1992   3.450   0.133   1.550  0.1098  0.0717 -0.0098
  126DMF     C3 1993   3.295   0.320   1.530 -0.3380 -0.5597  0.1496
  126DMF     O1 1994   3.185   0.365   1.527 -0.2811  0.4912 -0.6138
  126DMF     H1 1995   3.151   0.111   1.643 -1.0002  0.2659 -0.2026
  126DMF     H2 1996   3.227  -0.016   1.547  0.1328  0.0667  0.2461
  126DMF     H3 1997   3.123   0.094   1.466  0.5544  3.0546 -1.4445
  126DMF     H4 1998   3.511   0.221   1.574  0.0244  0.1030  0.0968
  126DMF     H5 1999   3.491   0.086   1.460 -0.1670 -0.9157  0.3740
  126DMF     H6 2000   3.461   0.058   1.630  2.1029  1.6318  1.2325
  126DMF     H7 2001   3.383   0.386   1.531 -1.4224  0.9017  1.1353
  127DMF     C1 2002   0.668   0.551   1.585 -0.1419 -0.3220 -0.0444
  127DMF     N1 2003   0.526   0.541   1.533 -0.1671 -0.0693 -0.5909
  127DMF     C2 2004   0.464   0.409   1.530 -0.3410  0.1883 -0.0926
  127DMF     C3 2005   0.455   0.657   1.483  0.3625  0.9796 -0.4512
  127DMF     O1 2006   0.499   0.771   1.493 -0.4093  0.3702  0.1416
  127DMF     H1 2007   0.671   0.641   1.647  1.1010 -0.2086 -0.2583
  127DMF     H2 2008   0.736   0.566   1.501 -0.1586  0.6678  0.1115
  127DMF     H3 2009   0.703   0.457   1.631 -0.7080 -0.0067  1.0526
  127DMF     H4 2010   0.473   0.362   1.432  1.6977  1.7742 -0.7134
  127DMF     H5 2011   0.356   0.418   1.546 -0.6628 -1.1311 -1.5114
  127DMF     H6 2012   0.513   0.347   1.607 -1.2482 -1.8211 -1.1089
  127DMF     H7 2013   0.352   0.639   1.448  0.4598 -0.0527 -0.2290
  128DMF     C1 2014   1.882   0.392   1.535 -0.3017 -0.2172  0.2912
  128DMF     N1 2015   1.895   0.252   1.502 -0.8964  0.3780 -0.0046
  128DMF     C2 2016   2.010   0.226   1.408  0.1268  0.0166 -0.2648
  128DMF     C3 2017   1.810   0.151   1.542  0.5156  0.0925  0.1080
  128DMF     O1 2018   1.706   0.171   1.609 -0.2789  0.2108  0.4075
  128DMF     H1 2019   1.795   0.442   1.491  0.3984  0.3638 -0.4616
  128DMF     H2 2020   1.967   0.445   1.490 -0.6869 -0.5294 -0.8286
  128DMF     H3 2021   1.878   0.407   1.644  1.0702  0.8832  0.2099
  128DMF     H4 2022   1.971   0.242   1.307  1.3667  0.4535 -0.6754
  128DMF     H5 2023   2.033   0.119   1.409  1.5530  0.3206 -0.2037
  128DMF     H6 2024   2.099   0.286   1.430  0.5007  0.5269 -3.0373
  128DMF     H7 2025   1.836   0.050   1.505  0.1374 -0.1691  0.5493
  129DMF     C1 2026   0.646   2.107   0.872  0.0953 -0.4613 -0.0286
  129DMF     N1 2027   0.516   2.052   0.906 -0.0761 -0.7408  0.1962
  129DMF     C2 2028   0.414   2.026   0.803  0.8296 -0.0702 -0.3251
  129DMF     C3 2029   0.487   2.024   1.044  0.3484 -0.3991 -0.2259
  129DMF     O1 2030   0.566   2.051   1.133 -0.4163 -0.7947  0.9853
  129DMF     H1 2031   0.709   2.112   0.962 -0.0171  1.4820 -0.0275
  129DMF     H2 2032   0.625   2.214   0.857  1.4611 -0.3655 -1.3593
  129DMF     H3 2033   0.695   2.074   0.780  1.0609  0.5580  0.0929
  129DMF     H4 2034   0.460   2.042   0.704  2.1634 -0.9323  0.1274
  129DMF     H5 2035   0.335   2.099   0.821 -0.3250 -1.5700  0.8689
  129DMF     H6 2036   0.376   1.923   0.810  0.5226  0.1029  0.4959
  129DMF     H7 2037   0.382   1.993   1.055  0.2521  0.0693  0.1820
  130DMF     C1 2038   0.188   0.251   0.169 -0.2535  0.6744  0.1760
  130DMF     N1 2039   0.144   0.235   0.310  0.1417 -0.1084  0.1901
  130DMF     C2 2040  -0.001   0.261   0.327  0.2443  0.0606 -0.3330
  130DMF     C3 2041   0.237   0.240   0.412  0.0783 -0.6030  0.2915
  130DMF     O1 2042   0.360   0.252   0.407 -0.4360  0.2684 -0.0380
  130DMF     H1 2043   0.168   0.355   0.139 -0.5874  0.2243 -1.1950
  130DMF     H2 2044   0.127   0.186   0.106  0.1837  0.3796  0.0504
  130DMF     H3 2045   0.296   0.239   0.151 -0.2670  0.8812 -0.0482
  130DMF     H4 2046  -0.028   0.291   0.429  2.3067  0.1053  0.2134
  130DMF     H5 2047  -0.059   0.169   0.313  2.9811 -2.0151  1.5406
  130DMF     H6 2048  -0.044   0.332   0.255 -0.4012 -0.7860 -0.7841
  130DMF     H7 2049   0.193   0.233   0.513  1.1517 -1.8659  0.6779
  131DMF     C1 2050   0.761   0.635   0.615 -0.0427 -0.7530  0.4048
  131DMF     N1 2051   0.837   0.662   0.745 -0.7997 -0.0467 -0.8698
  131DMF     C2 2052   0.980   0.681   0.733  0.0159  0.0209  0.3070
  131DMF     C3 2053   0.777   0.714   0.861  0.3814 -0.2691 -0.2986
  131DMF     O1 2054   0.657   0.698   0.873 -0.6143 -0.1413  0.1138
  131DMF     H1 2055   0.709   0.723   0.575 -1.3275  0.4298  4.3873
  131DMF     H2 2056   0.688   0.556   0.637  1.9245 -2.7655 -0.0881
  131DMF     H3 2057   0.831   0.597   0.539 -1.2023  2.0904 -2.2038
  131DMF     H4 2058   1.022   0.599   0.793  0.0719  1.2737  2.0039
  131DMF     H5 2059   1.012   0.777   0.776 -0.6785  0.5877 -0.4195
  131DMF     H6 2060   1.013   0.666   0.630  0.8349  0.0014  0.5689
  131DMF     H7 2061   0.839   0.767   0.935 -0.7052  1.8751 -0.8938
  132DMF     C1 2062   1.156   0.978   1.171 -0.5560 -0.3020  0.3941
  132DMF     N1 2063   1.213   0.845   1.193  0.5238  0.5812 -0.6895
  132DMF     C2 2064   1.117   0.740   1.174 -0.4085 -0.2134 -0.1014
  132DMF     C3 2065   1.349   0.814   1.182  0.3995  0.0293 -0.0661
  132DMF     O1 2066   1.438   0.891   1.161  0.4953  0.1416  0.5534
  132DMF     H1 2067   1.143   0.987   1.062 -0.2427 -4.3421 -0.0520
  132DMF     H2 2068   1.227   1.055   1.204  1.1364 -0.9074 -1.6726
  132DMF     H3 2069   1.064   0.986   1.230 -0.2148  0.8270  0.7847
  132DMF     H4 2070   1.149   0.670   1.097  3.3750 -1.3252  2.3789
  132DMF     H5 2071   1.015   0.775   1.150 -0.3396 -0.4031 -0.6817
  132DMF     H6 2072   1.107   0.683   1.267  0.9366 -1.6378 -0.8024
  132DMF     H7 2073   1.364   0.708   1.211  0.4452  0.2392  0.7026
  133DMF     C1 2074   2.654   2.197   0.428 -0.1475 -0.0839 -0.2529
  133DMF     N1 2075   2.660   2.051   0.461 -0.6628 -0.0657  0.0945
  133DMF     C2 2076   2.736   2.007   0.581 -0.2024 -0.3124  0.0708
  133DMF     C3 2077   2.580   1.962   0.391  0.1688  0.0805 -0.3220
  133DMF     O1 2078   2.516   1.997   0.295  0.3772  0.4003 -0.4611
  133DMF     H1 2079   2.713   2.257   0.499 -3.7026  3.6389 -0.2488
  133DMF     H2 2080   2.549   2.226   0.434  0.0226  0.3316  0.9802
  133DMF     H3 2081   2.706   2.217   0.334 -0.6770  4.2153  0.2925
  133DMF     H4 2082   2.668   1.987   0.664 -0.8141 -1.8615 -0.7711
  133DMF     H5 2083   2.802   2.089   0.611 -2.0812  1.9769 -1.9268
  133DMF     H6 2084   2.798   1.918   0.560 -3.1855 -2.1423 -1.3765
  133DMF     H7 2085   2.578   1.857   0.427  0.7304  0.3210  0.4315
  134DMF     C1 2086   3.318   0.534   0.734  0.4981  0.5676  0.0913
  134DMF     N1 2087   3.239   0.415   0.780  0.1954  0.1060 -0.2186
  134DMF     C2 2088   3.288   0.280   0.754 -0.0817 -0.9962  0.2923
  134DMF     C3 2089   3.110   0.433   0.843  0.0164  0.1186  0.3202
  134DMF     O1 2090   3.066   0.545   0.867 -0.3577 -0.1063 -0.5720
  134DMF     H1 2091   3.323   0.600   0.822 -0.5300 -0.3409  0.8452
  134DMF     H2 2092   3.272   0.594   0.654 -1.4551  1.2523  1.6779
  134DMF     H3 2093   3.418   0.497   0.709  0.6299  3.4274 -4.0720
  134DMF     H4 2094   3.313   0.274   0.647  0.9687  2.4435  0.2743
  134DMF     H5 2095   3.214   0.204   0.779 -1.6757  0.8010  1.1848
  134DMF     H6 2096   3.379   0.259   0.812 -0.6136  2.0885  2.3712
  134DMF     H7 2097   3.055   0.340   0.868  0.7859  0.2581  2.5775
  135DMF     C1 2098   0.493   2.229   3.421  0.3754 -0.2500  0.8909
  135DMF     N1 2099   0.368   2.168   3.481 -0.1001  0.2705  0.3513
  135DMF     C2 2100   0.266   2.134   3.384 -0.0055  0.0307 -0.6766
  135DMF     C3 2101   0.356   2.142   3.620 -0.0860  1.3095  0.7360
  135DMF     O1 2102   0.441   2.165   3.703 -0.2096  0.0468  0.3136
  135DMF     H1 2103   0.571   2.161   3.457  1.7071  1.0491  0.5130
  135DMF     H2 2104   0.501   2.331   3.461  0.5804 -0.2320  0.8016
  135DMF     H3 2105   0.497   2.221   3.312  2.0316  0.6905  0.8634
  135DMF     H4 2106   0.275   2.027   3.360  0.9004 -0.5362  2.0376
  135DMF     H5 2107   0.269   2.201   3.298 -0.2818 -0.0118 -0.7209
  135DMF     H6 2108   0.165   2.153   3.424 -0.3968 -2.1921 -0.5175
  135DMF     H7 2109   0.254   2.104   3.639 -0.9981  2.4816 -1.5868
  136DMF     C1 2110   0.428   0.599   0.099 -0.6633  1.2713  0.8231
  136DMF     N1 2111   0.497   0.523   0.208 -0.1103  0.2430 -0.6115
  136DMF     C2 2112   0.557   0.395   0.168 -0.5518 -0.4626  1.3745
  136DMF     C3 2113   0.522   0.571   0.344  0.0841 -0.0811  0.0100
  136DMF     O1 2114   0.495   0.688   0.382  0.4770 -0.1652  0.1687
  136DMF     H1 2115   0.488   0.590   0.008  0.7362 -1.3939  1.9212
  136DMF     H2 2116   0.422   0.705   0.124 -1.4946  1.1101  1.3292
  136DMF     H3 2117   0.329   0.552   0.095 -1.2958  2.3565  2.9094
  136DMF     H4 2118   0.576   0.342   0.262  2.7015  0.9220  1.5945
  136DMF     H5 2119   0.647   0.416   0.108 -1.2164  1.3163  0.9629
  136DMF     H6 2120   0.487   0.335   0.110 -3.5435  0.8745  3.4998
  136DMF     H7 2121   0.570   0.498   0.413 -0.1519 -1.2262 -1.0230
  137DMF     C1 2122   2.186   0.731   0.634  0.3553 -0.2205 -0.1717
  137DMF     N1 2123   2.109   0.642   0.726  0.3432 -0.6031  0.2055
  137DMF     C2 2124   1.965   0.665   0.746  0.1990 -0.1371  0.0450
  137DMF     C3 2125   2.170   0.554   0.811 -0.3867  0.4408  0.1842
  137DMF     O1 2126   2.286   0.523   0.799 -0.3225 -0.0380  0.1816
  137DMF     H1 2127   2.289   0.741   0.672  0.0023 -0.0593  0.7617
  137DMF     H2 2128   2.144   0.832   0.620  1.1945  0.3074  1.0078
  137DMF     H3 2129   2.182   0.680   0.537  0.6233 -0.5902  0.0125
  137DMF     H4 2130   1.942   0.765   0.787  0.6443 -0.2716  0.6275
  137DMF     H5 2131   1.932   0.591   0.820  1.0209  0.1408  0.6863
  137DMF     H6 2132   1.918   0.653   0.647  1.1602  2.2839 -0.7460
  137DMF     H7 2133   2.102   0.488   0.868 -2.7936 -0.2863 -3.3513
  138DMF     C1 2134   2.864   2.467   3.702  0.0337  0.7108  0.0994
  138DMF     N1 2135   2.846   2.567   3.807  0.0301 -0.1964  0.1525
  138DMF     C2 2136   2.711   2.627   3.823 -0.3493 -0.5036 -1.0806
  138DMF     C3 2137   2.959   2.609   3.884 -0.0660 -0.1054  0.1996
  138DMF     O1 2138   3.070   2.559   3.885  0.9014 -0.2510 -0.3056
  138DMF     H1 2139   2.972   2.453   3.689  0.0431 -1.7638  2.4190
  138DMF     H2 2140   2.818   2.502   3.609  0.0663  1.7230  0.4546
  138DMF     H3 2141   2.823   2.370   3.733  1.2696  0.3510  0.6513
  138DMF     H4 2142   2.666   2.574   3.907  0.8085  0.3686  0.1057
  138DMF     H5 2143   2.656   2.607   3.730 -1.6499 -1.1951 -0.1739
  138DMF     H6 2144   2.724   2.730   3.859  0.0294 -1.0368  0.3068
  138DMF     H7 2145   2.930   2.694   3.949  0.0898  0.6006 -0.6403
  139DMF     C1 2146   2.235   2.057   1.409  0.2134 -0.5333 -0.0175
  139DMF     N1 2147   2.280   2.171   1.488  0.0945  0.1225  0.4111
  139DMF     C2 2148   2.420   2.165   1.528 -0.5234 -0.2365 -0.3926
  139DMF     C3 2149   2.196   2.275   1.529 -0.5409 -0.6739  0.2510
  139DMF     O1 2150   2.074   2.278   1.510 -0.5102 -0.8350 -0.1205
  139DMF     H1 2151   2.239   2.073   1.300 -0.3400  2.1363  0.3263
  139DMF     H2 2152   2.129   2.034   1.424 -0.3570  1.1613 -1.3524
  139DMF     H3 2153   2.293   1.969   1.441  0.8417  0.0432  0.4371
  139DMF     H4 2154   2.427   2.234   1.613 -3.2649 -0.9923  0.5094
  139DMF     H5 2155   2.486   2.193   1.444 -0.0122 -1.4521 -0.4066
  139DMF     H6 2156   2.446   2.063   1.558 -1.8884 -1.1709 -2.2951
  139DMF     H7 2157   2.249   2.359   1.578 -2.9206  1.0921 -0.1318
  140DMF     C1 2158   0.795   2.352   3.056 -0.7104 -0.9256 -0.3573
  140DMF     N1 2159   0.871   2.462   3.109  0.1456  0.4156 -0.1436
  140DMF     C2 2160   0.970   2.533   3.024 -0.5122  0.3899  0.3171
  140DMF     C3 2161   0.830   2.511   3.235 -0.3249  0.2449 -0.6468
  140DMF     O1 2162   0.736   2.465   3.301 -0.6524 -0.6221 -0.4681
  140DMF     H1 2163   0.824   2.332   2.952 -1.6895 -0.7941 -0.6621
  140DMF     H2 2164   0.689   2.370   3.078 -0.2313 -0.7436  1.9819
  140DMF     H3 2165   0.813   2.265   3.120  2.3047  0.6084  1.0214
  140DMF     H4 2166   1.063   2.548   3.079 -0.3645 -1.1315  0.4789
  140DMF     H5 2167   0.929   2.629   2.989 -1.2232  0.6250  1.7681
  140DMF     H6 2168   0.997   2.471   2.938  1.2405  1.4270  0.0963
  140DMF     H7 2169   0.898   2.593   3.266 -0.9241  1.3343 -2.1636
  141DMF     C1 2170   1.311   2.670   0.008 -0.1540  0.0942  0.5982
  141DMF     N1 2171   1.413   2.773   0.047 -0.3791  0.1363  0.1055
  141DMF     C2 2172   1.386   2.913   0.004  0.7804  0.0035  0.2528
  141DMF     C3 2173   1.544   2.737   0.088  1.1056  0.3755  0.1323
  141DMF     O1 2174   1.578   2.624   0.121  0.3886 -0.0591 -0.0430
  141DMF     H1 2175   1.275   2.610   0.093  1.0612 -1.2445  0.2011
  141DMF     H2 2176   1.365   2.603  -0.060 -0.8495 -0.2325  0.3643
  141DMF     H3 2177   1.231   2.720  -0.047  0.8822  1.2702  0.1411
  141DMF     H4 2178   1.337   2.976   0.079  2.5841  1.9785 -0.1908
  141DMF     H5 2179   1.322   2.923  -0.084 -0.1063 -1.6394  0.6822
  141DMF     H6 2180   1.482   2.958  -0.025 -0.0304  1.6115  0.0337
  141DMF     H7 2181   1.619   2.818   0.087  0.9469  0.5100 -1.5687
  142DMF     C1 2182   0.670   2.797   0.541  0.1483  0.3063 -0.7951
  142DMF     N1 2183   0.600   2.667   0.505  0.3339 -0.1544 -0.3510
  142DMF     C2 2184   0.637   2.544   0.564  0.3064  0.6827  0.2830
  142DMF     C3 2185   0.479   2.673   0.434  0.2578 -0.0305 -0.1815
  142DMF     O1 2186   0.438   2.775   0.381  0.1907 -0.4313  0.2747
  142DMF     H1 2187   0.645   2.825   0.643 -1.0842 -0.8027 -0.7787
  142DMF     H2 2188   0.637   2.881   0.479 -3.7605 -1.3549 -1.1052
  142DMF     H3 2189   0.777   2.778   0.526  0.0903 -0.9342  0.2792
  142DMF     H4 2190   0.737   2.550   0.608  0.9982  0.1872 -1.1813
  142DMF     H5 2191   0.650   2.460   0.493  2.6014  2.0324 -0.9659
  142DMF     H6 2192   0.570   2.518   0.647  0.2517 -2.5757 -0.6860
  142DMF     H7 2193   0.431   2.577   0.412  0.2886 -0.2329  0.6104
  143DMF     C1 2194   1.931   1.673   1.117  0.8069 -0.7244  0.2090
  143DMF     N1 2195   2.023   1.777   1.175  0.2540  0.2982  0.1737
  143DMF     C2 2196   1.981   1.912   1.163 -0.0788 -0.1378 -0.0062
  143DMF     C3 2197   2.136   1.738   1.253 -0.2706  0.4266  0.0029
  143DMF     O1 2198   2.158   1.624   1.279 -0.0738 -0.3022 -0.7307
  143DMF     H1 2199   1.894   1.602   1.191  0.4915 -2.5829 -1.6990
  143DMF     H2 2200   1.983   1.617   1.039  2.0134 -0.3902  0.7608
  143DMF     H3 2201   1.845   1.725   1.073 -0.3069 -0.4873  2.5522
  143DMF     H4 2202   1.913   1.934   1.247  0.8822 -0.1904  0.8048
  143DMF     H5 2203   1.938   1.935   1.065  1.3691 -3.4174 -1.4381
  143DMF     H6 2204   2.076   1.966   1.176 -0.2060  0.8130 -2.7562
  143DMF     H7 2205   2.203   1.824   1.273  0.4209 -0.3913  1.2420
  144DMF     C1 2206   0.905   0.243   0.169 -0.4765  0.5384  0.4723
  144DMF     N1 2207   0.839   0.204   0.294  0.4953 -0.2666 -0.0025
  144DMF     C2 2208   0.769   0.069   0.300 -0.0498  0.4884  0.2861
  144DMF     C3 2209   0.808   0.296   0.397 -0.2650 -0.4232  1.3052
  144DMF     O1 2210   0.842   0.413   0.386  0.5158 -0.0041 -0.0676
  144DMF     H1 2211   0.830   0.278   0.098 -1.2277 -0.6284  0.6831
  144DMF     H2 2212   0.973   0.165   0.132 -0.2973  1.6013 -1.4626
  144DMF     H3 2213   0.971   0.330   0.183 -0.0851  0.1869  0.8346
  144DMF     H4 2214   0.661   0.084   0.289 -0.1735 -0.6993 -0.1680
  144DMF     H5 2215   0.782   0.012   0.392  0.8067  0.4437  0.1416
  144DMF     H6 2216   0.799   0.005   0.215 -2.0009 -0.7627  0.5017
  144DMF     H7 2217   0.748   0.260   0.483 -0.7663 -0.5717  0.8986
  145DMF     C1 2218   0.871   3.176   0.975  0.7648 -0.0157  0.0049
  145DMF     N1 2219   0.890   3.102   1.098  0.1987 -0.2211  0.3159
  145DMF     C2 2220   1.011   3.141   1.175  0.2918  0.2796  0.5141
  145DMF     C3 2221   0.782   3.028   1.159 -0.1835 -0.4583  0.1189
  145DMF     O1 2222   0.669   3.011   1.116 -0.2753 -0.1003  0.1763
  145DMF     H1 2223   0.811   3.133   0.894  0.8199  0.1531 -0.1245
  145DMF     H2 2224   0.970   3.181   0.929  0.0072 -2.4798 -2.0202
  145DMF     H3 2225   0.843   3.278   1.003 -0.9997 -0.0646 -1.4935
  145DMF     H4 2226   1.094   3.078   1.141 -0.7371 -0.0225 -1.4962
  145DMF     H5 2227   0.981   3.122   1.279 -0.5929 -2.5140 -0.1977
  145DMF     H6 2228   1.034   3.244   1.147  0.7711  0.5399  1.8218
  145DMF     H7 2229   0.819   2.981   1.252  0.4958 -0.8278 -0.3255
  146DMF     C1 2230   1.240   2.764   0.949 -0.0155 -0.0398  0.0650
  146DMF     N1 2231   1.218   2.890   0.869 -0.1559 -0.7199 -0.6191
  146DMF     C2 2232   1.302   3.011   0.906  0.8467  0.3702 -0.3611
  146DMF     C3 2233   1.105   2.905   0.781  0.4084  0.0500 -0.1557
  146DMF     O1 2234   1.023   2.822   0.765 -0.1971  0.3765  0.0707
  146DMF     H1 2235   1.336   2.721   0.918  0.7835  2.2451 -0.7779
  146DMF     H2 2236   1.156   2.694   0.945 -0.7201  0.8621 -1.5874
  146DMF     H3 2237   1.264   2.789   1.053  0.6233  0.5665 -0.2200
  146DMF     H4 2238   1.408   2.985   0.921  0.9227 -0.4411 -2.2476
  146DMF     H5 2239   1.257   3.055   0.996 -1.5652 -0.3343 -1.1930
  146DMF     H6 2240   1.292   3.086   0.826 -2.0173 -2.1297 -2.4290
  146DMF     H7 2241   1.089   3.005   0.737  0.7891 -0.2172 -0.9245
  147DMF     C1 2242   2.807   1.099   0.280 -0.2927  0.7054  0.3941
  147DMF     N1 2243   2.733   1.048   0.394 -0.0322  0.3164  0.0999
  147DMF     C2 2244   2.674   1.144   0.497 -0.7413  0.5403  0.1516
  147DMF     C3 2245   2.726   0.912   0.422 -0.2018 -0.6381 -0.1330
  147DMF     O1 2246   2.753   0.826   0.345 -0.0563  0.4346  0.5281
  147DMF     H1 2247   2.748   1.075   0.191  1.6846  1.5746 -1.1913
  147DMF     H2 2248   2.911   1.065   0.278 -0.7066 -0.6053 -3.1354
  147DMF     H3 2249   2.805   1.208   0.283 -0.0183  0.6979  0.8505
  147DMF     H4 2250   2.729   1.239   0.506  1.9243 -1.1690  2.9228
  147DMF     H5 2251   2.675   1.111   0.602  1.6449  1.8009  0.5607
  147DMF     H6 2252   2.575   1.166   0.457 -0.2232  2.6163 -0.0471
  147DMF     H7 2253   2.700   0.893   0.528 -2.7008  1.0825 -0.3903
  148DMF     C1 2254   3.179   1.579   1.539  0.5536 -0.3094  0.2306
  148DMF     N1 2255   3.065   1.484   1.525 -0.4084  0.0393  0.2126
  148DMF     C2 2256   3.090   1.341   1.499  0.4135  0.1411 -0.3346
  148DMF     C3 2257   2.943   1.532   1.547 -0.0382  0.0657  0.0694
  148DMF     O1 2258   2.907   1.651   1.562 -0.1028  0.6206  0.1062
  148DMF     H1 2259   3.173   1.658   1.463 -0.7984  0.2749  0.9261
  148DMF     H2 2260   3.274   1.524   1.535  0.7313 -0.0403  0.6469
  148DMF     H3 2261   3.161   1.627   1.636  2.4331 -2.2084  1.5585
  148DMF     H4 2262   3.184   1.330   1.443  0.8803  0.6591  0.3417
  148DMF     H5 2263   3.015   1.302   1.429  0.4013 -2.1882  0.9094
  148DMF     H6 2264   3.096   1.282   1.592  4.2292  1.6189  0.4526
  148DMF     H7 2265   2.874   1.446   1.536  1.2297 -1.0944  1.1472
  149DMF     C1 2266   0.258   1.523   1.411  0.7945  0.1603  0.7615
  149DMF     N1 2267   0.214   1.382   1.432 -0.4492 -0.1542  0.0113
  149DMF     C2 2268   0.124   1.348   1.540  0.1398 -0.0557 -0.2066
  149DMF     C3 2269   0.272   1.283   1.349 -0.2092  0.3054 -0.1865
  149DMF     O1 2270   0.347   1.303   1.257  0.0017  0.8026 -0.4664
  149DMF     H1 2271   0.205   1.566   1.325  1.5540  0.2272  0.3207
  149DMF     H2 2272   0.367   1.530   1.400  0.8305 -1.3828 -0.0022
  149DMF     H3 2273   0.232   1.586   1.497 -1.6868  0.4405 -0.1437
  149DMF     H4 2274   0.080   1.439   1.580  2.3822  0.7786  0.4351
  149DMF     H5 2275   0.183   1.300   1.619  0.0079  0.2406  0.0717
  149DMF     H6 2276   0.054   1.269   1.508 -0.4512  0.2813  0.2402
  149DMF     H7 2277   0.236   1.181   1.372 -2.0727  1.4199  2.1229
  150DMF     C1 2278   3.081   2.451   0.637 -0.0277  0.3681  0.3272
  150DMF     N1 2279   3.135   2.461   0.493  0.1995 -0.5507  0.2000
  150DMF     C2 2280   3.080   2.374   0.388 -0.0167  0.3153  0.1690
  150DMF     C3 2281   3.242   2.553   0.476 -0.2480  0.0691 -0.2973
  150DMF     O1 2282   3.295   2.607   0.571 -0.2127 -0.2253 -0.1405
  150DMF     H1 2283   2.972   2.438   0.638 -0.0334  0.4044  0.1628
  150DMF     H2 2284   3.108   2.539   0.696 -1.0032  1.9825 -1.5880
  150DMF     H3 2285   3.135   2.364   0.675  0.1413 -0.6115 -2.0428
  150DMF     H4 2286   3.054   2.441   0.305  0.6063  1.6951  1.0728
  150DMF     H5 2287   2.987   2.320   0.407 -0.6498  1.6415  0.9120
  150DMF     H6 2288   3.157   2.298   0.368 -3.3288 -3.0987 -0.0829
  150DMF     H7 2289   3.253   2.567   0.367  1.0692  1.7792  0.0449
  151DMF     C1 2290   0.986   2.383   0.700 -0.1013  0.4791  0.4073
  151DMF     N1 2291   0.971   2.328   0.562  0.0887  0.8252  0.6904
  151DMF     C2 2292   1.090   2.355   0.472  0.4893 -1.1748  0.6704
  151DMF     C3 2293   0.876   2.227   0.529  0.1531  0.0976 -0.2077
  151DMF     O1 2294   0.784   2.204   0.604  0.7892 -0.3026 -0.6895
  151DMF     H1 2295   0.950   2.486   0.710  0.3870  0.8030 -1.0924
  151DMF     H2 2296   1.094   2.392   0.717 -0.0251  2.2823 -0.8996
  151DMF     H3 2297   0.938   2.318   0.774  1.2173 -0.4554  0.4519
  151DMF     H4 2298   1.176   2.360   0.539 -0.8758  2.9576  2.2617
  151DMF     H5 2299   1.085   2.453   0.423  3.9552  1.4252  5.2124
  151DMF     H6 2300   1.093   2.285   0.387 -2.3609 -1.4182  0.7031
  151DMF     H7 2301   0.898   2.170   0.437 -1.6338  1.5884 -1.6190
  152DMF     C1 2302   1.900   2.913   0.487 -0.0725 -0.4970  0.9728
  152DMF     N1 2303   1.855   3.058   0.500  0.0033 -0.0117 -0.2833
  152DMF     C2 2304   1.723   3.086   0.438 -1.0452 -0.1008 -0.1400
  152DMF     C3 2305   1.935   3.157   0.560 -0.1423 -0.2380  0.3901
  152DMF     O1 2306   2.051   3.147   0.598 -0.1233  0.2073 -0.0232
  152DMF     H1 2307   1.930   2.873   0.585  0.2992  1.7728  1.8466
  152DMF     H2 2308   1.996   2.916   0.433 -1.1152  1.0643 -0.8696
  152DMF     H3 2309   1.828   2.860   0.424 -1.5560  2.1894  0.3144
  152DMF     H4 2310   1.647   3.059   0.513 -0.2015 -0.5702  0.5469
  152DMF     H5 2311   1.711   3.016   0.354 -2.1842  0.4105 -0.4186
  152DMF     H6 2312   1.713   3.191   0.409 -0.2226  0.0457  0.1021
  152DMF     H7 2313   1.887   3.256   0.548  0.4099 -0.0914 -0.7658
  153DMF     C1 2314   1.349   2.177   0.207  0.0331 -0.8804  1.0986
  153DMF     N1 2315   1.462   2.254   0.258  0.5007  0.0632 -0.0181
  153DMF     C2 2316   1.452   2.377   0.337 -0.3793  0.3001 -0.4191
  153DMF     C3 2317   1.581   2.187   0.243  0.5027 -0.6062 -0.4621
  153DMF     O1 2318   1.601   2.082   0.189 -0.6279 -0.3916 -0.9908
  153DMF     H1 2319   1.389   2.097   0.143  0.6847  1.4269 -1.4301
  153DMF     H2 2320   1.279   2.236   0.147 -0.5965 -1.3504  1.3582
  153DMF     H3 2321   1.289   2.135   0.290  0.4031 -1.7219  0.9470
  153DMF     H4 2322   1.407   2.360   0.436  0.4558 -0.1906 -0.1185
  153DMF     H5 2323   1.386   2.451   0.291  0.0727  2.8148  2.7386
  153DMF     H6 2324   1.551   2.422   0.353  0.1059 -1.2531  1.1625
  153DMF     H7 2325   1.664   2.249   0.283 -0.1949 -0.4507  0.7763
  154DMF     C1 2326   1.975   1.823   0.442 -0.1823  0.6528  0.7910
  154DMF     N1 2327   1.862   1.910   0.415  0.0735 -0.2759  0.1082
  154DMF     C2 2328   1.728   1.857   0.380 -0.9293 -1.0396 -0.0146
  154DMF     C3 2329   1.875   2.049   0.428 -0.0513  0.5222  0.6158
  154DMF     O1 2330   1.976   2.107   0.457 -0.3599  0.0697 -0.8610
  154DMF     H1 2331   1.963   1.740   0.371 -0.8719  1.2237  0.2343
  154DMF     H2 2332   1.970   1.795   0.548  0.4303 -0.3333  0.5721
  154DMF     H3 2333   2.066   1.883   0.431  0.5201 -0.5682 -0.3169
  154DMF     H4 2334   1.730   1.749   0.396 -1.2502 -0.9667  0.5423
  154DMF     H5 2335   1.709   1.873   0.273  0.8998  0.2660 -0.1674
  154DMF     H6 2336   1.646   1.894   0.443 -2.3405  0.0712 -2.4421
  154DMF     H7 2337   1.783   2.106   0.403 -0.6467 -1.5959 -2.3099
  155DMF     C1 2338   0.356   1.152   0.616 -0.6045 -0.2353  0.3397
  155DMF     N1 2339   0.213   1.186   0.662  0.1336 -0.8459  0.4836
  155DMF     C2 2340   0.188   1.214   0.810 -0.0696 -0.3366 -0.7085
  155DMF     C3 2341   0.140   1.257   0.564  0.5952  0.8636  0.2560
  155DMF     O1 2342   0.171   1.264   0.441 -0.0766 -0.4785 -0.1815
  155DMF     H1 2343   0.356   1.132   0.509 -1.7881  0.6302  0.1727
  155DMF     H2 2344   0.399   1.064   0.666 -2.4820 -0.7904  1.0063
  155DMF     H3 2345   0.422   1.238   0.634 -1.0224  0.2116 -0.2701
  155DMF     H4 2346   0.109   1.288   0.830 -0.0954 -1.0600  2.0847
  155DMF     H5 2347   0.278   1.255   0.858  0.2276 -0.7843 -0.8872
  155DMF     H6 2348   0.156   1.117   0.849 -0.2439  0.5675  1.4518
  155DMF     H7 2349   0.046   1.297   0.607 -0.1682  2.0298 -2.3680
  156DMF     C1 2350   1.536   1.285   1.100 -0.9379 -0.8459 -0.0196
  156DMF     N1 2351   1.632   1.392   1.070  0.4433 -0.1333  0.0265
  156DMF     C2 2352   1.601   1.526   1.118  0.7741 -0.1036  0.2143
  156DMF     C3 2353   1.735   1.379   0.984 -0.0319  0.6240  0.4943
  156DMF     O1 2354   1.768   1.273   0.937 -0.1528  0.4986 -0.3009
  156DMF     H1 2355   1.450   1.293   1.033 -1.6443  3.5945  1.2678
  156DMF     H2 2356   1.504   1.306   1.203 -0.4947 -0.0408 -0.0369
  156DMF     H3 2357   1.578   1.184   1.091  1.8128 -0.1012  3.2713
  156DMF     H4 2358   1.495   1.530   1.143  0.4481  0.3278 -1.1836
  156DMF     H5 2359   1.604   1.608   1.044 -0.5222 -0.1021  0.1536
  156DMF     H6 2360   1.661   1.551   1.207 -0.5465  3.6451  0.1459
  156DMF     H7 2361   1.798   1.465   0.956 -1.1036  0.7438 -1.6984
  157DMF     C1 2362   1.669   1.774   0.752 -0.0533 -0.8703 -0.4972
  157DMF     N1 2363   1.801   1.828   0.793 -0.4930 -0.0609  0.7462
  157DMF     C2 2364   1.825   1.979   0.804  0.1724 -0.2245  0.5776
  157DMF     C3 2365   1.907   1.744   0.799 -0.6780 -0.4717  0.5331
  157DMF     O1 2366   1.892   1.618   0.777  0.2626  0.6907 -0.0497
  157DMF     H1 2367   1.674   1.720   0.656 -0.8463 -2.2648  0.2371
  157DMF     H2 2368   1.592   1.851   0.743  0.2859 -0.4436  0.2429
  157DMF     H3 2369   1.630   1.708   0.830 -0.7332 -1.6966 -1.5159
  157DMF     H4 2370   1.757   2.019   0.727  0.1967 -2.4830 -0.6575
  157DMF     H5 2371   1.929   2.006   0.781  1.2405 -2.1740  2.9222
  157DMF     H6 2372   1.804   2.017   0.905 -0.5513 -0.4233  0.5085
  157DMF     H7 2373   2.002   1.795   0.823 -0.6960 -0.1232 -0.1041
  158DMF     C1 2374   3.384   2.021   2.293  0.2836  0.1158  0.7051
  158DMF     N1 2375   3.490   2.125   2.317 -0.3998  0.4596 -0.3377
  158DMF     C2 2376   3.627   2.093   2.285  0.4354  0.0637 -0.2271
  158DMF     C3 2377   3.457   2.243   2.376 -0.6706 -0.0238 -0.4438
  158DMF     O1 2378   3.346   2.279   2.402 -0.1919  0.4145  0.0721
  158DMF     H1 2379   3.312   2.013   2.375 -0.4409 -2.7334 -0.1359
  158DMF     H2 2380   3.419   1.919   2.271  0.7608  0.8497 -2.1312
  158DMF     H3 2381   3.333   2.038   2.198  1.4797  1.3106  0.2709
  158DMF     H4 2382   3.657   2.168   2.211  0.4636  0.4058  0.1341
  158DMF     H5 2383   3.631   1.986   2.260  0.1269  0.4380 -1.9459
  158DMF     H6 2384   3.679   2.111   2.380  1.5905  1.0812 -1.0418
  158DMF     H7 2385   3.551   2.297   2.401 -0.8462 -1.1777  2.9582
  159DMF     C1 2386   0.979   0.061   3.261  0.1332  0.4534 -0.3953
  159DMF     N1 2387   0.921  -0.048   3.178  0.1448  0.1712  0.2865
  159DMF     C2 2388   0.845  -0.155   3.247  0.6098 -0.1489 -0.2487
  159DMF     C3 2389   0.905  -0.038   3.046 -0.9997 -0.1855  0.2101
  159DMF     O1 2390   0.951   0.048   2.975  0.4714 -0.0723  0.7966
  159DMF     H1 2391   1.034   0.128   3.194  2.0321 -1.2035 -0.5471
  159DMF     H2 2392   1.055   0.026   3.332 -0.1698  0.8723  0.1282
  159DMF     H3 2393   0.899   0.109   3.317 -0.8504 -0.1498 -1.2538
  159DMF     H4 2394   0.741  -0.122   3.260  0.7570  0.8216 -1.4300
  159DMF     H5 2395   0.875  -0.180   3.349  0.6007  2.1455  0.3513
  159DMF     H6 2396   0.851  -0.251   3.195  0.4402 -1.2697  1.7729
  159DMF     H7 2397   0.841  -0.115   3.000  0.9121 -1.6632 -0.0513
  160DMF     C1 2398   0.856   1.830   3.031  0.2177 -0.4084  0.4883
  160DMF     N1 2399   0.744   1.926   3.039  0.7786 -0.2535 -0.7229
  160DMF     C2 2400   0.711   2.011   2.923  0.0398  0.6294  0.6484
  160DMF     C3 2401   0.652   1.930   3.148  0.3475 -0.3407  0.5344
  160DMF     O1 2402   0.677   1.867   3.253 -0.2139 -0.1794 -0.5801
  160DMF     H1 2403   0.923   1.858   3.114  0.6682  0.0917 -0.0425
  160DMF     H2 2404   0.909   1.846   2.936 -0.7679  1.9054  0.3130
  160DMF     H3 2405   0.820   1.726   3.035 -0.5656 -0.1538  0.2185
  160DMF     H4 2406   0.642   2.092   2.949  2.1840  2.6189  0.3480
  160DMF     H5 2407   0.665   1.953   2.842 -1.6575  2.1271  0.5111
  160DMF     H6 2408   0.800   2.062   2.883  0.6789  0.1032  1.3845
  160DMF     H7 2409   0.568   2.001   3.139  0.6428 -0.1644 -1.0622
  161DMF     C1 2410   0.682   2.500   2.260 -0.6380 -0.3121  0.7769
  161DMF     N1 2411   0.786   2.606   2.254 -0.1005  0.0864  0.0648
  161DMF     C2 2412   0.758   2.743   2.262  0.7115 -0.6275 -0.4438
  161DMF     C3 2413   0.923   2.572   2.251  0.4067 -0.4865 -0.3514
  161DMF     O1 2414   0.962   2.458   2.259  0.2923 -0.2801  0.0193
  161DMF     H1 2415   0.639   2.503   2.361 -3.3950 -2.0815 -0.2737
  161DMF     H2 2416   0.721   2.398   2.250 -2.5244 -0.7728 -2.6817
  161DMF     H3 2417   0.598   2.513   2.190  0.7976  0.4868 -0.8207
  161DMF     H4 2418   0.844   2.792   2.215  2.3862 -0.3251  2.8633
  161DMF     H5 2419   0.770   2.768   2.368 -2.2476  2.5587 -0.7625
  161DMF     H6 2420   0.658   2.763   2.221 -1.3960 -0.7715  4.3997
  161DMF     H7 2421   0.986   2.662   2.260 -0.5956  0.2912 -0.9669
  162DMF     C1 2422   3.185   1.027   2.222 -0.3576  0.1603  0.2311
  162DMF     N1 2423   3.188   0.992   2.357  0.3169  0.2845 -0.3731
  162DMF     C2 2424   3.301   0.902   2.394  0.2024  0.4674 -0.2771
  162DMF     C3 2425   3.121   1.064   2.451  0.0182 -0.8283  0.0324
  162DMF     O1 2426   3.033   1.148   2.417 -0.3443  0.0219 -0.1370
  162DMF     H1 2427   3.138   0.947   2.162  0.8464  0.2208 -0.8059
  162DMF     H2 2428   3.287   1.020   2.184  0.0496 -0.8232  1.4721
  162DMF     H3 2429   3.147   1.127   2.197  1.0835  0.6942  0.1502
  162DMF     H4 2430   3.324   0.823   2.322 -0.8296 -1.2417  1.2296
  162DMF     H5 2431   3.278   0.857   2.491 -0.1142  0.9995 -0.1001
  162DMF     H6 2432   3.390   0.963   2.416 -1.4418  2.9552 -0.2881
  162DMF     H7 2433   3.139   1.039   2.557  1.0853  0.1729  0.1015
  163DMF     C1 2434   2.212   3.337   2.799 -0.4792 -0.1006  0.3742
  163DMF     N1 2435   2.100   3.327   2.688 -0.3946 -0.3361 -0.5404
  163DMF     C2 2436   2.084   3.199   2.622 -0.2451  0.0754  0.4876
  163DMF     C3 2437   2.031   3.438   2.633 -0.5481  0.3492  0.7494
  163DMF     O1 2438   2.049   3.552   2.661  0.0023 -0.3864  0.2490
  163DMF     H1 2439   2.185   3.283   2.891  1.0322  0.1236  0.9638
  163DMF     H2 2440   2.235   3.441   2.823  0.8968 -0.2091 -0.3958
  163DMF     H3 2441   2.307   3.291   2.768 -0.7724 -0.4996  0.0654
  163DMF     H4 2442   2.047   3.132   2.700 -0.2896  2.3415  2.4907
  163DMF     H5 2443   2.183   3.176   2.580 -1.0816  0.3570 -1.6568
  163DMF     H6 2444   2.019   3.200   2.534  1.7981 -1.4813 -1.0689
  163DMF     H7 2445   1.964   3.403   2.552 -0.1729 -0.5412  0.8220
  164DMF     C1 2446   2.425   2.509   3.261 -0.6181 -0.0759 -0.2686
  164DMF     N1 2447   2.563   2.469   3.210  0.2496 -0.2099 -0.6453
  164DMF     C2 2448   2.640   2.379   3.298 -0.6598 -0.0225 -0.1437
  164DMF     C3 2449   2.605   2.497   3.083 -0.1727  0.3826 -0.2126
  164DMF     O1 2450   2.543   2.576   3.007  0.2655 -0.0322  0.4113
  164DMF     H1 2451   2.395   2.608   3.225 -4.5860 -1.4167 -0.8886
  164DMF     H2 2452   2.424   2.507   3.371 -1.2158 -0.0699 -0.2724
  164DMF     H3 2453   2.353   2.432   3.233 -0.0751 -0.8114  0.3253
  164DMF     H4 2454   2.709   2.312   3.245  0.7969 -0.4710  2.2417
  164DMF     H5 2455   2.568   2.315   3.352 -0.8600  0.7738  0.5434
  164DMF     H6 2456   2.697   2.439   3.371 -0.4159  0.2295 -0.5400
  164DMF     H7 2457   2.706   2.463   3.053  0.5505 -0.1094  2.6133
  165DMF     C1 2458   0.279   1.115   3.344  0.2234 -0.1782 -1.4201
  165DMF     N1 2459   0.292   1.265   3.341 -0.7822  0.7423  0.4043
  165DMF     C2 2460   0.202   1.335   3.428 -0.0658  0.1017  0.6857
  165DMF     C3 2461   0.417   1.319   3.300 -0.0072 -0.6744  0.7558
  165DMF     O1 2462   0.509   1.261   3.243  0.7374  0.4401 -0.5443
  165DMF     H1 2463   0.372   1.064   3.316  1.1043  0.0343  0.9623
  165DMF     H2 2464   0.201   1.089   3.271 -0.4746 -1.6512 -0.1711
  165DMF     H3 2465   0.249   1.086   3.445 -0.9808 -0.3823 -1.8342
  165DMF     H4 2466   0.165   1.421   3.372 -0.6165 -0.4662  0.1723
  165DMF     H5 2467   0.261   1.364   3.516 -0.2338 -1.7322  1.4310
  165DMF     H6 2468   0.121   1.272   3.466  1.2997 -1.8935  0.3670
  165DMF     H7 2469   0.435   1.419   3.342 -0.8686 -0.6124  0.9947
  166DMF     C1 2470   2.652   1.095   3.117 -0.5999 -0.0575 -0.0737
  166DMF     N1 2471   2.706   1.050   3.248  0.2099  0.2399 -0.3137
  166DMF     C2 2472   2.723   0.910   3.262  0.2401  0.2536  0.0958
  166DMF     C3 2473   2.759   1.140   3.344  0.2595 -0.4596 -0.5182
  166DMF     O1 2474   2.751   1.262   3.333  0.0864  0.3787 -0.4148
  166DMF     H1 2475   2.611   1.001   3.078 -0.0813  0.4095 -1.7787
  166DMF     H2 2476   2.723   1.127   3.041  1.3783 -2.5991  0.6211
  166DMF     H3 2477   2.568   1.161   3.142 -0.3984  0.3838 -0.5672
  166DMF     H4 2478   2.760   0.859   3.172 -0.1882  2.8919 -1.6331
  166DMF     H5 2479   2.621   0.871   3.273  0.3246 -0.2063 -0.6951
  166DMF     H6 2480   2.763   0.871   3.357  0.2138  1.7926  0.7440
  166DMF     H7 2481   2.810   1.092   3.430 -0.2737  0.2171  0.1800
  167DMF     C1 2482   1.746   3.137   0.004  0.2157 -0.6359 -0.0852
  167DMF     N1 2483   1.657   3.248   0.030 -0.7199  0.0238  0.1515
  167DMF     C2 2484   1.696   3.378  -0.028  0.6914  0.1098 -0.4738
  167DMF     C3 2485   1.563   3.233   0.135 -0.3902  0.4075  0.8149
  167DMF     O1 2486   1.531   3.129   0.192 -0.0038 -0.6116 -0.0905
  167DMF     H1 2487   1.718   3.100  -0.096 -2.0617 -0.0586  0.3253
  167DMF     H2 2488   1.729   3.055   0.074 -0.2321 -0.2411  0.2689
  167DMF     H3 2489   1.851   3.170  -0.000 -0.3928  1.6235  1.8948
  167DMF     H4 2490   1.772   3.430   0.031  0.5457 -2.3832  2.0020
  167DMF     H5 2491   1.602   3.434  -0.037 -0.0688 -0.9868  0.5009
  167DMF     H6 2492   1.728   3.382  -0.133  1.2171  0.0102 -0.3146
  167DMF     H7 2493   1.512   3.330   0.152 -0.2199  0.3667  1.5728
  168DMF     C1 2494   0.262   0.405   3.657  0.0045 -0.7804  0.1771
  168DMF     N1 2495   0.206   0.271   3.623  0.2271  0.5090 -0.2613
  168DMF     C2 2496   0.061   0.270   3.593  0.2078  0.0440  0.4307
  168DMF     C3 2497   0.273   0.149   3.653 -0.2840 -0.3517 -0.1943
  168DMF     O1 2498   0.389   0.137   3.684 -0.0796  0.1052  0.3119
  168DMF     H1 2499   0.372   0.404   3.651  0.0935  2.5266  0.4177
  168DMF     H2 2500   0.236   0.434   3.759  0.1077 -0.5806  0.1473
  168DMF     H3 2501   0.224   0.482   3.589 -0.4755  0.8576  2.2702
  168DMF     H4 2502   0.028   0.171   3.559 -0.9166  1.0584 -1.5828
  168DMF     H5 2503   0.035   0.336   3.509 -2.1673 -2.4470 -0.8865
  168DMF     H6 2504   0.004   0.298   3.682  0.8994  1.2781  0.4952
  168DMF     H7 2505   0.206   0.061   3.651 -1.8332  0.7338  1.9974
  169DMF     C1 2506   1.874   0.906   3.708  0.2106 -0.4571 -0.3474
  169DMF     N1 2507   1.731   0.933   3.692 -0.1603  0.0681 -0.2196
  169DMF     C2 2508   1.629   0.837   3.734  0.0688 -0.0887 -0.5352
  169DMF     C3 2509   1.687   1.064   3.648 -0.0491 -0.4003 -0.1781
  169DMF     O1 2510   1.765   1.140   3.589  0.3908  0.6355 -0.3574
  169DMF     H1 2511   1.899   0.875   3.810 -0.0466 -0.8875 -0.4150
  169DMF     H2 2512   1.937   0.991   3.678 -1.1265  0.3482 -0.9312
  169DMF     H3 2513   1.888   0.822   3.639 -0.8354  1.0495 -2.4568
  169DMF     H4 2514   1.531   0.887   3.730  1.1199  2.0114 -0.8342
  169DMF     H5 2515   1.655   0.812   3.838  1.7399 -1.9118 -1.3572
  169DMF     H6 2516   1.634   0.747   3.672 -2.9063 -0.8484  0.2336
  169DMF     H7 2517   1.579   1.077   3.667  0.8619  2.8765  3.5008
  170DMF     C1 2518   2.618   0.222   2.699  0.4536  0.1768 -0.1478
  170DMF     N1 2519   2.506   0.317   2.649 -0.3906 -0.4781  0.4989
  170DMF     C2 2520   2.369   0.267   2.664  0.0975  0.2769  0.5473
  170DMF     C3 2521   2.524   0.433   2.569  0.2762  0.1792 -0.6337
  170DMF     O1 2522   2.633   0.488   2.553 -0.1239 -0.6234  0.3883
  170DMF     H1 2523   2.584   0.168   2.788 -0.0723 -0.5235 -0.7758
  170DMF     H2 2524   2.702   0.285   2.733 -0.2128  0.9069  0.1632
  170DMF     H3 2525   2.643   0.157   2.615  0.1860 -1.3978  0.9742
  170DMF     H4 2526   2.304   0.299   2.581 -0.9290 -2.4917  0.1951
  170DMF     H5 2527   2.325   0.304   2.757 -2.9838 -2.2257  0.1898
  170DMF     H6 2528   2.380   0.158   2.669  2.4789  0.3837 -1.4070
  170DMF     H7 2529   2.443   0.461   2.499  1.2485 -2.3514 -2.8398
  171DMF     C1 2530   2.159   1.075   2.984 -0.0634 -0.0768  0.2837
  171DMF     N1 2531   2.034   0.997   2.946  0.2335  0.3341 -0.3861
  171DMF     C2 2532   1.963   1.049   2.827 -0.2218 -0.2745  0.8042
  171DMF     C3 2533   2.000   0.875   3.013 -0.0772 -0.1981  0.1263
  171DMF     O1 2534   2.066   0.834   3.108  0.5210 -0.4244 -0.3983
  171DMF     H1 2535   2.175   1.059   3.091 -0.2232 -0.0833  0.3063
  171DMF     H2 2536   2.154   1.179   2.948  0.5753 -0.4602 -0.9165
  171DMF     H3 2537   2.246   1.036   2.931 -0.7828 -2.4112  0.7613
  171DMF     H4 2538   1.873   0.986   2.814  0.3706 -0.6447 -1.8226
  171DMF     H5 2539   2.028   1.042   2.739  0.8671 -1.5185  1.6899
  171DMF     H6 2540   1.935   1.154   2.842 -0.5292 -0.2417  0.0563
  171DMF     H7 2541   1.913   0.823   2.968  1.1426 -2.3951  0.2754
  172DMF     C1 2542   2.722   2.543   0.414  0.5920 -0.1728  0.2306
  172DMF     N1 2543   2.606   2.551   0.510  0.3091  0.7486 -0.2837
  172DMF     C2 2544   2.469   2.537   0.459  0.5693  0.5652 -0.4258
  172DMF     C3 2545   2.626   2.557   0.653 -0.5335 -0.4583  1.0182
  172DMF     O1 2546   2.739   2.555   0.699 -0.1797  0.1703 -0.3296
  172DMF     H1 2547   2.742   2.634   0.355 -1.5033  0.1719  0.0069
  172DMF     H2 2548   2.697   2.464   0.341 -1.4908  2.4384 -1.9751
  172DMF     H3 2549   2.809   2.522   0.478  0.8081 -0.6441 -0.2054
  172DMF     H4 2550   2.459   2.596   0.367 -0.5997  1.2133  0.1046
  172DMF     H5 2551   2.391   2.584   0.520 -1.0407 -0.9266 -1.3154
  172DMF     H6 2552   2.453   2.434   0.424  0.1678  0.4463  0.1008
  172DMF     H7 2553   2.529   2.547   0.704 -1.3460  1.5134 -0.0608
  173DMF     C1 2554   2.344   0.999   2.273  0.6180  0.2734  0.0126
  173DMF     N1 2555   2.222   0.965   2.365 -0.3213 -0.0775  0.5234
  173DMF     C2 2556   2.257   0.933   2.510 -0.0318 -0.0719  0.1357
  173DMF     C3 2557   2.092   0.999   2.332 -0.4118 -0.4225  0.0614
  173DMF     O1 2558   2.064   1.021   2.214  0.3319 -0.0948  0.6061
  173DMF     H1 2559   2.367   0.912   2.210  0.8215  0.9494 -0.8625
  173DMF     H2 2560   2.430   1.031   2.334 -0.6909  0.8017  1.6020
  173DMF     H3 2561   2.327   1.088   2.210  4.5175  0.6972 -0.5754
  173DMF     H4 2562   2.365   0.932   2.532 -0.1504  0.8045  0.7742
  173DMF     H5 2563   2.224   0.836   2.550  0.2814 -0.9664 -1.7255
  173DMF     H6 2564   2.228   1.022   2.567  0.2958 -0.5672  1.0942
  173DMF     H7 2565   2.021   0.986   2.416  0.8091 -2.1320  0.8705
  174DMF     C1 2566   2.525   2.019   2.777  0.6262 -0.3440  0.2730
  174DMF     N1 2567   2.451   1.981   2.897 -0.1845 -0.0834 -0.3061
  174DMF     C2 2568   2.354   1.864   2.890  0.2726  0.1740 -0.6631
  174DMF     C3 2569   2.462   2.050   3.016 -0.2761 -0.1625 -0.0404
  174DMF     O1 2570   2.540   2.137   3.033 -0.0214 -0.7400  0.0679
  174DMF     H1 2571   2.482   2.095   2.711 -0.2621 -0.5870  0.5742
  174DMF     H2 2572   2.536   1.939   2.704  1.9066  0.1127 -0.0640
  174DMF     H3 2573   2.625   2.048   2.815  0.2021  0.2078  0.9926
  174DMF     H4 2574   2.258   1.901   2.927  0.3927  0.2815 -0.4610
  174DMF     H5 2575   2.390   1.785   2.956  1.7370  1.9096  0.6747
  174DMF     H6 2576   2.347   1.818   2.790  1.3396  0.5076 -0.8947
  174DMF     H7 2577   2.391   2.016   3.093 -0.6863 -0.6514 -0.6362
  175DMF     C1 2578   2.117   1.788   3.226 -0.4798 -0.4017 -0.2424
  175DMF     N1 2579   2.085   1.700   3.112  0.8480 -0.3440 -0.0133
  175DMF     C2 2580   2.016   1.746   2.988 -0.2170  0.0982  0.0385
  175DMF     C3 2581   2.093   1.562   3.120 -0.1734  0.0653 -0.0227
  175DMF     O1 2582   2.137   1.509   3.225 -0.5213 -0.2675 -1.0226
  175DMF     H1 2583   2.212   1.841   3.208 -0.4485 -0.2402  0.3725
  175DMF     H2 2584   2.136   1.733   3.319  1.6011 -0.9946 -0.9728
  175DMF     H3 2585   2.032   1.855   3.240 -0.9203 -0.9432 -0.3479
  175DMF     H4 2586   2.001   1.855   2.994  1.9838  0.4049  0.6341
  175DMF     H5 2587   1.922   1.694   2.967  0.1283 -0.0383 -1.2217
  175DMF     H6 2588   2.088   1.727   2.908 -1.2413  0.9862 -1.1002
  175DMF     H7 2589   2.066   1.515   3.024 -0.2421  1.2919 -0.6109
  176DMF     C1 2590   3.181   2.593   2.908 -0.7592 -0.7294 -0.1492
  176DMF     N1 2591   3.115   2.548   3.037 -0.5306  0.1968 -0.5225
  176DMF     C2 2592   3.200   2.531   3.154 -0.5524  0.2479  0.4378
  176DMF     C3 2593   2.979   2.515   3.037  0.8234  0.0522 -0.6198
  176DMF     O1 2594   2.902   2.543   2.947  0.1118  0.2168 -0.1848
  176DMF     H1 2595   3.225   2.504   2.862 -1.8104 -0.7004 -1.2527
  176DMF     H2 2596   3.266   2.662   2.918 -0.5057 -1.1764  0.8216
  176DMF     H3 2597   3.105   2.634   2.841 -0.1426  0.6888 -0.0090
  176DMF     H4 2598   3.297   2.576   3.131 -0.5899 -0.4122 -1.0793
  176DMF     H5 2599   3.215   2.425   3.181 -0.2758  0.2260  0.1934
  176DMF     H6 2600   3.160   2.579   3.244  1.1799 -0.8416  1.8340
  176DMF     H7 2601   2.941   2.479   3.134  0.1030  2.2868 -0.0453
  177DMF     C1 2602   3.065   2.029   2.239 -0.0963  0.4491  0.0451
  177DMF     N1 2603   2.986   1.928   2.307  0.8075  0.1515  0.2258
  177DMF     C2 2604   2.945   1.811   2.228  0.5123 -0.3226  1.5562
  177DMF     C3 2605   2.926   1.957   2.430 -0.4000  0.4658 -0.2569
  177DMF     O1 2606   2.947   2.061   2.497  0.4287  0.2587 -0.0233
  177DMF     H1 2607   3.128   1.971   2.171 -1.2143 -1.0770  0.3025
  177DMF     H2 2608   3.124   2.082   2.315 -1.9758 -1.2597  2.7874
  177DMF     H3 2609   3.005   2.107   2.190  0.1263  1.3589  1.1985
  177DMF     H4 2610   2.929   1.728   2.297  0.3360  0.5863  2.6127
  177DMF     H5 2611   3.019   1.779   2.154 -1.5435 -1.9819  0.1384
  177DMF     H6 2612   2.861   1.848   2.167  0.9692  0.6183  1.4893
  177DMF     H7 2613   2.861   1.875   2.464  1.6444 -1.1713 -0.1740
  178DMF     C1 2614   1.416   0.696   2.615  0.2576 -0.3472  0.0010
  178DMF     N1 2615   1.302   0.596   2.613  0.0125 -1.0938  0.3133
  178DMF     C2 2616   1.182   0.622   2.696  0.4410 -0.1232 -0.1818
  178DMF     C3 2617   1.288   0.516   2.494  0.0823 -0.0844 -0.6583
  178DMF     O1 2618   1.375   0.502   2.410  0.3899  0.2258 -0.2993
  178DMF     H1 2619   1.515   0.652   2.598  0.0493 -0.1277 -2.0094
  178DMF     H2 2620   1.413   0.762   2.702  2.5993  0.3049 -0.3635
  178DMF     H3 2621   1.406   0.763   2.529  0.1167  0.2868  0.5100
  178DMF     H4 2622   1.108   0.553   2.654  0.5319  1.3038 -2.8253
  178DMF     H5 2623   1.138   0.721   2.679  0.8378  0.1444  0.3297
  178DMF     H6 2624   1.190   0.602   2.804 -0.8657 -0.7744 -0.1942
  178DMF     H7 2625   1.191   0.463   2.488 -1.2194  2.1848 -0.4412
  179DMF     C1 2626   1.786   3.130   2.297 -0.1286 -0.2439 -0.0192
  179DMF     N1 2627   1.795   2.985   2.274  0.3120  0.1568  0.3135
  179DMF     C2 2628   1.934   2.922   2.267 -0.1347  0.1411  0.0099
  179DMF     C3 2629   1.684   2.898   2.252 -0.4608 -0.6362 -0.5777
  179DMF     O1 2630   1.570   2.943   2.250  0.1150 -0.0844 -0.1565
  179DMF     H1 2631   1.681   3.155   2.276  0.4137  2.0640 -0.1338
  179DMF     H2 2632   1.842   3.192   2.225  3.4062 -1.2150  1.7945
  179DMF     H3 2633   1.810   3.141   2.403 -0.2654 -1.4079  0.1434
  179DMF     H4 2634   1.995   2.940   2.357 -0.7252 -1.1343  0.6767
  179DMF     H5 2635   1.977   2.972   2.179  1.6326 -1.3991 -0.0373
  179DMF     H6 2636   1.926   2.815   2.246 -0.0607 -0.1999  1.6337
  179DMF     H7 2637   1.715   2.793   2.240  2.7280  0.0142  1.2686
  180DMF     C1 2638   3.019   0.838   3.686 -0.1425 -0.7629  0.3643
  180DMF     N1 2639   3.034   0.917   3.809  0.1381  0.3292  0.3152
  180DMF     C2 2640   3.024   1.070   3.804  0.4272 -0.9451 -0.3354
  180DMF     C3 2641   3.045   0.858   3.935  0.4908 -0.2785 -0.3355
  180DMF     O1 2642   3.060   0.737   3.940 -0.5875 -0.3298 -0.3565
  180DMF     H1 2643   3.021   0.909   3.602  0.6223 -0.8840  0.2778
  180DMF     H2 2644   2.923   0.785   3.695  0.8965 -2.2993  2.6339
  180DMF     H3 2645   3.100   0.765   3.681  0.2685 -0.3331  0.6654
  180DMF     H4 2646   3.055   1.104   3.704 -1.1106 -0.4805 -0.6647
  180DMF     H5 2647   3.091   1.117   3.877 -1.1439 -0.3992  0.7893
  180DMF     H6 2648   2.919   1.099   3.813  0.8261  0.5533 -0.3585
  180DMF     H7 2649   3.035   0.919   4.027  2.2034 -2.3128  1.2502
  181DMF     C1 2650   0.062   3.382   2.287 -0.0704 -0.5013 -0.3627
  181DMF     N1 2651   0.054   3.236   2.303  0.5227 -0.1250  0.3899
  181DMF     C2 2652  -0.054   3.163   2.237  0.2672 -0.3243  0.1287
  181DMF     C3 2653   0.165   3.165   2.349 -0.2693  0.2246 -0.6377
  181DMF     O1 2654   0.269   3.211   2.399 -0.0629  0.2890 -0.6096
  181DMF     H1 2655   0.132   3.422   2.212  1.8667 -2.2222  0.4911
  181DMF     H2 2656   0.100   3.424   2.381 -1.0422  0.4055 -0.3553
  181DMF     H3 2657  -0.036   3.428   2.268  0.1875  0.5402  0.7432
  181DMF     H4 2658  -0.141   3.147   2.301  1.4621 -3.7525  1.0170
  181DMF     H5 2659  -0.027   3.065   2.195  3.3668  0.1778  0.8440
  181DMF     H6 2660  -0.088   3.217   2.148  1.1386 -1.7455 -1.1067
  181DMF     H7 2661   0.151   3.056   2.350  0.6307  0.1024  0.3395
  182DMF     C1 2662   1.213   1.897   3.788 -0.6551 -0.4537 -0.5160
  182DMF     N1 2663   1.339   1.849   3.853 -0.0079 -0.0728  0.5488
  182DMF     C2 2664   1.438   1.788   3.767  0.3607 -0.1363  0.7643
  182DMF     C3 2665   1.356   1.848   3.990  0.3095 -0.6641  0.4215
  182DMF     O1 2666   1.265   1.869   4.067  0.6025  0.0280 -0.3366
  182DMF     H1 2667   1.185   1.997   3.824 -0.9734 -1.2303  1.4545
  182DMF     H2 2668   1.127   1.833   3.813  0.7998 -2.8388 -1.4805
  182DMF     H3 2669   1.231   1.894   3.680 -1.4200  0.5143 -0.6908
  182DMF     H4 2670   1.509   1.868   3.739  2.0389 -2.0896 -0.7118
  182DMF     H5 2671   1.401   1.738   3.677  1.1943 -1.6017  1.2241
  182DMF     H6 2672   1.494   1.712   3.823 -1.2633 -0.0004  2.6067
  182DMF     H7 2673   1.459   1.822   4.018  0.8081  1.2606  0.4164
  183DMF     C1 2674   1.674   3.323   3.227  0.2384 -0.7600 -0.0009
  183DMF     N1 2675   1.780   3.312   3.126 -0.1802  0.3470  0.3006
  183DMF     C2 2676   1.871   3.426   3.101  0.1658 -0.2158 -0.2487
  183DMF     C3 2677   1.779   3.193   3.044 -0.2210 -0.4590 -0.2506
  183DMF     O1 2678   1.726   3.086   3.081 -0.3142  0.0739 -0.0450
  183DMF     H1 2679   1.611   3.411   3.211 -0.2944 -1.3607 -1.2967
  183DMF     H2 2680   1.718   3.322   3.328  1.5752 -1.5812 -0.5730
  183DMF     H3 2681   1.603   3.240   3.223  0.3361 -0.9638  1.9649
  183DMF     H4 2682   1.848   3.477   3.006  0.2298 -1.6241 -1.0375
  183DMF     H5 2683   1.971   3.385   3.083  1.3920  2.9573 -1.1286
  183DMF     H6 2684   1.867   3.488   3.191  2.6736  0.8855 -0.8489
  183DMF     H7 2685   1.829   3.200   2.946 -1.5873 -0.6543 -0.9707
  184DMF     C1 2686   0.027   3.342   0.239  0.1401  0.3418 -0.0957
  184DMF     N1 2687  -0.094   3.340   0.153 -0.2482 -0.1119  0.8380
  184DMF     C2 2688  -0.223   3.315   0.219  0.2117  0.6348 -0.4636
  184DMF     C3 2689  -0.075   3.348   0.015  0.0575 -0.0636 -0.5653
  184DMF     O1 2690   0.033   3.386  -0.028 -0.1849  0.1876  0.5690
  184DMF     H1 2691   0.076   3.439   0.224 -0.6012  0.5673 -1.1259
  184DMF     H2 2692   0.107   3.277   0.203  0.1915 -0.3596  1.2321
  184DMF     H3 2693   0.014   3.338   0.348  1.1696  0.0808  0.0223
  184DMF     H4 2694  -0.299   3.383   0.179 -1.0866 -0.6995 -0.3422
  184DMF     H5 2695  -0.208   3.330   0.327 -1.2680 -1.3865  0.0499
  184DMF     H6 2696  -0.249   3.211   0.197 -2.1367  1.5055 -1.9442
  184DMF     H7 2697  -0.156   3.310  -0.050  0.5091 -1.4036 -0.3760
  185DMF     C1 2698   1.585   2.397   3.672  0.4152 -0.1340 -0.0263
  185DMF     N1 2699   1.596   2.277   3.592 -0.4472 -0.0774 -0.0307
  185DMF     C2 2700   1.521   2.154   3.624  0.1362 -0.0425  0.3307
  185DMF     C3 2701   1.691   2.269   3.487  0.6853  0.8566  0.0919
  185DMF     O1 2702   1.752   2.369   3.455  0.3224  0.2019  0.0654
  185DMF     H1 2703   1.652   2.375   3.756  0.8790 -0.4324 -0.4628
  185DMF     H2 2704   1.480   2.409   3.700 -0.5918 -0.8222 -3.2232
  185DMF     H3 2705   1.600   2.491   3.618 -1.0430 -0.5741 -1.2104
  185DMF     H4 2706   1.587   2.086   3.680 -1.0081 -0.2700  1.4172
  185DMF     H5 2707   1.494   2.114   3.526 -0.0826  0.7922  0.0481
  185DMF     H6 2708   1.433   2.159   3.688  0.1799  0.2538  0.3659
  185DMF     H7 2709   1.700   2.172   3.436  2.6478  0.5809  0.9061
  186DMF     C1 2710   1.345   1.300   3.079  0.1679 -0.1928 -0.0636
  186DMF     N1 2711   1.247   1.281   2.968  0.0890 -0.8282  0.2690
  186DMF     C2 2712   1.107   1.269   3.003 -0.2386  0.4243  0.0821
  186DMF     C3 2713   1.286   1.287   2.835 -0.2236  0.9453  0.2301
  186DMF     O1 2714   1.399   1.307   2.798  0.1099 -0.2669 -0.4800
  186DMF     H1 2715   1.295   1.325   3.173  1.5119  1.1130  0.3373
  186DMF     H2 2716   1.406   1.390   3.061  0.2314 -0.2167  0.0301
  186DMF     H3 2717   1.407   1.210   3.084 -0.8089 -0.9548 -1.6035
  186DMF     H4 2718   1.062   1.222   2.914 -0.0256  0.0866  0.1537
  186DMF     H5 2719   1.055   1.365   3.017 -1.5219 -0.1547 -0.5266
  186DMF     H6 2720   1.090   1.213   3.095  0.6782  1.3048  0.7941
  186DMF     H7 2721   1.206   1.268   2.760  0.6572 -1.5094 -0.1426
  187DMF     C1 2722   0.389   2.666   3.044  0.8796  0.5785  0.1772
  187DMF     N1 2723   0.296   2.584   3.129 -0.4010 -0.0509  0.3792
  187DMF     C2 2724   0.351   2.482   3.220 -0.7260  0.2290 -0.2290
  187DMF     C3 2725   0.158   2.611   3.128  0.9909 -0.4274  0.2512
  187DMF     O1 2726   0.114   2.696   3.051 -0.2272 -0.5111  0.1919
  187DMF     H1 2727   0.488   2.620   3.051  1.1453  1.0287 -0.5967
  187DMF     H2 2728   0.395   2.772   3.073  0.1830  0.4280  0.8828
  187DMF     H3 2729   0.355   2.663   2.940 -0.0184 -1.0093  0.4992
  187DMF     H4 2730   0.278   2.455   3.297  0.0328  0.4680  0.5806
  187DMF     H5 2731   0.437   2.518   3.276 -1.0767 -0.1627  0.5666
  187DMF     H6 2732   0.365   2.382   3.177  2.9422  0.2559  0.7181
  187DMF     H7 2733   0.099   2.551   3.199 -1.8800  2.1955  0.1686
  188DMF     C1 2734   1.217   1.669   2.980 -0.1511  0.1627  0.5477
  188DMF     N1 2735   1.182   1.668   2.836  0.2010 -0.0559 -0.3455
  188DMF     C2 2736   1.064   1.592   2.790  1.1465  0.0442  0.1041
  188DMF     C3 2737   1.262   1.731   2.738  0.4332 -0.0390 -0.1379
  188DMF     O1 2738   1.370   1.776   2.761 -0.3196 -0.1548 -0.2489
  188DMF     H1 2739   1.297   1.595   2.997  0.8125  0.8840 -0.7518
  188DMF     H2 2740   1.132   1.650   3.047 -0.3876  1.7112  0.6908
  188DMF     H3 2741   1.263   1.767   2.999 -2.1669  1.0682  0.8162
  188DMF     H4 2742   0.990   1.571   2.868  2.2819  0.1935  1.2284
  188DMF     H5 2743   1.088   1.494   2.745 -1.8576 -0.8725  0.3759
  188DMF     H6 2744   1.013   1.647   2.710  1.0826 -1.2310 -0.7514
  188DMF     H7 2745   1.215   1.727   2.638  0.5282 -1.2173 -0.1418
  189DMF     C1 2746   3.363   1.086   3.012 -0.3483  0.3501 -0.0724
  189DMF     N1 2747   3.425   1.187   2.923  0.2499  0.0562  0.4173
  189DMF     C2 2748   3.542   1.261   2.977  0.7741 -0.1934 -0.1269
  189DMF     C3 2749   3.391   1.186   2.789  0.3598  0.2189 -0.0051
  189DMF     O1 2750   3.303   1.118   2.751  0.1097  0.1291  0.3926
  189DMF     H1 2751   3.259   1.117   3.022 -0.0576  1.2254  0.3153
  189DMF     H2 2752   3.412   1.091   3.110  0.9227 -0.1597 -0.6668
  189DMF     H3 2753   3.371   0.985   2.970 -3.6156  0.8174 -1.9590
  189DMF     H4 2754   3.629   1.236   2.914  0.2282 -0.7460 -0.6674
  189DMF     H5 2755   3.574   1.251   3.082 -1.4734 -1.0837  0.4976
  189DMF     H6 2756   3.526   1.366   2.954  1.4340  0.2315  1.2603
  189DMF     H7 2757   3.447   1.257   2.726 -0.3436 -0.7517 -1.7649
  190DMF     C1 2758   0.114   0.533   2.981 -0.6502 -0.5558 -0.3589
  190DMF     N1 2759  -0.006   0.565   3.059 -0.3537  0.6669 -0.3290
  190DMF     C2 2760  -0.087   0.671   3.002 -0.0703  0.1522 -0.2071
  190DMF     C3 2761  -0.045   0.493   3.173  0.2569 -0.9211  0.5031
  190DMF     O1 2762   0.008   0.386   3.213 -0.6243 -0.4770  0.2587
  190DMF     H1 2763   0.212   0.562   3.021 -0.2215 -1.6830 -0.5704
  190DMF     H2 2764   0.106   0.582   2.883  1.8798 -0.6858 -0.6773
  190DMF     H3 2765   0.112   0.423   2.970 -0.6941 -0.2230 -4.5437
  190DMF     H4 2766  -0.028   0.756   2.967  1.1562 -0.6660 -0.1594
  190DMF     H5 2767  -0.158   0.705   3.079 -0.1794  0.5992 -0.5065
  190DMF     H6 2768  -0.152   0.624   2.927 -0.7575 -1.1761  1.1638
  190DMF     H7 2769  -0.132   0.536   3.225  0.7834 -0.0354  0.6427
  191DMF     C1 2770   1.482   2.333   2.239  0.6756 -0.1556 -0.3394
  191DMF     N1 2771   1.424   2.468   2.239 -0.2534 -0.2685 -0.2967
  191DMF     C2 2772   1.275   2.495   2.245 -1.1217  0.3973 -0.2404
  191DMF     C3 2773   1.508   2.583   2.231  0.1622 -0.2999 -0.0970
  191DMF     O1 2774   1.628   2.567   2.221 -0.6266  0.0953 -0.4341
  191DMF     H1 2775   1.487   2.292   2.341  0.1898  0.6873  0.0237
  191DMF     H2 2776   1.584   2.344   2.200  1.1338 -1.6280  0.4084
  191DMF     H3 2777   1.428   2.265   2.172  1.6686 -2.6501  1.3165
  191DMF     H4 2778   1.210   2.409   2.225 -0.4408 -0.2242  0.2172
  191DMF     H5 2779   1.243   2.567   2.169  1.1454 -0.4367 -2.0236
  191DMF     H6 2780   1.263   2.521   2.351  0.6562 -1.5068  0.4629
  191DMF     H7 2781   1.450   2.677   2.226 -0.8297 -0.9882 -2.3186
  192DMF     C1 2782   1.224   3.306   3.596  0.2811 -0.4048 -0.0545
  192DMF     N1 2783   1.339   3.402   3.583 -0.1847  0.9314  0.2569
  192DMF     C2 2784   1.434   3.391   3.467  1.6731  0.4642 -0.2591
  192DMF     C3 2785   1.356   3.507   3.665  0.2239 -0.1753  0.9733
  192DMF     O1 2786   1.288   3.519   3.765  0.0336  0.1222  0.5466
  192DMF     H1 2787   1.201   3.321   3.702 -0.3247  1.5769 -0.4547
  192DMF     H2 2788   1.246   3.199   3.583  1.0035 -0.3650  0.8112
  192DMF     H3 2789   1.139   3.327   3.530  0.2324 -1.6808 -0.4196
  192DMF     H4 2790   1.381   3.399   3.372 -0.0067  1.0516  0.6999
  192DMF     H5 2791   1.474   3.290   3.480 -2.0859 -0.9028  1.4641
  192DMF     H6 2792   1.518   3.461   3.476  2.5014 -0.4611 -0.7262
  192DMF     H7 2793   1.434   3.578   3.630  2.1603 -1.4352  2.6717
  193DMF     C1 2794   1.649   0.007   2.257  0.5396  0.2866 -0.9871
  193DMF     N1 2795   1.612   0.146   2.248  0.1690 -0.1544 -0.3037
  193DMF     C2 2796   1.720   0.242   2.254  0.1519 -0.1499 -0.0471
  193DMF     C3 2797   1.477   0.199   2.254 -0.5904  0.1532  0.8501
  193DMF     O1 2798   1.382   0.124   2.259 -0.4134  0.3562 -0.3947
  193DMF     H1 2799   1.589  -0.053   2.187 -0.3219  1.7889 -1.5540
  193DMF     H2 2800   1.644  -0.034   2.359  0.9187  3.0724  0.2034
  193DMF     H3 2801   1.754  -0.001   2.228  0.0153 -1.9190 -2.4387
  193DMF     H4 2802   1.752   0.255   2.358 -1.2761 -2.4284  0.7089
  193DMF     H5 2803   1.683   0.341   2.226  1.8234 -0.3808 -3.3047
  193DMF     H6 2804   1.799   0.215   2.183  1.0169 -1.5025  1.3935
  193DMF     H7 2805   1.476   0.309   2.239 -1.6314 -0.1876 -1.9146
  194DMF     C1 2806   2.425   0.199   3.129  0.4313 -0.3577 -0.5744
  194DMF     N1 2807   2.539   0.114   3.172 -0.2314  0.1189 -0.3111
  194DMF     C2 2808   2.631   0.148   3.288 -0.3110 -0.0103 -0.4140
  194DMF     C3 2809   2.561  -0.008   3.109 -0.2667 -0.8541  0.3695
  194DMF     O1 2810   2.477  -0.045   3.030  0.3008  0.0752  0.0295
  194DMF     H1 2811   2.327   0.159   3.160  0.2993  0.7902  0.5089
  194DMF     H2 2812   2.424   0.196   3.019  2.2969  1.0190 -0.6487
  194DMF     H3 2813   2.436   0.304   3.157 -2.6757 -0.4481  1.2598
  194DMF     H4 2814   2.709   0.219   3.258  0.5006 -0.4496  0.6564
  194DMF     H5 2815   2.684   0.061   3.328 -0.7224 -0.4201 -0.7553
  194DMF     H6 2816   2.571   0.194   3.367  1.7823  1.7874  0.1797
  194DMF     H7 2817   2.642  -0.071   3.152 -1.0862 -2.1817  0.0129
  195DMF     C1 2818   3.270   0.257   2.251  0.0381 -0.1845 -0.8267
  195DMF     N1 2819   3.291   0.404   2.279  0.2816 -0.5572 -0.1245
  195DMF     C2 2820   3.420   0.459   2.244 -0.1579 -0.6054  0.0927
  195DMF     C3 2821   3.186   0.485   2.340 -0.3737 -0.4949  0.0852
  195DMF     O1 2822   3.082   0.429   2.371  0.1278  0.6791  0.2170
  195DMF     H1 2823   3.362   0.222   2.203  1.7824  1.3306  1.3001
  195DMF     H2 2824   3.180   0.248   2.189 -0.5499  0.2288 -0.0474
  195DMF     H3 2825   3.261   0.216   2.353 -1.7220  0.5394 -0.6830
  195DMF     H4 2826   3.402   0.565   2.226  1.2886 -0.3583 -0.0009
  195DMF     H5 2827   3.474   0.413   2.160  0.7300  0.4836  0.0598
  195DMF     H6 2828   3.491   0.452   2.328  2.5808  0.8034 -2.0126
  195DMF     H7 2829   3.207   0.592   2.356  0.1337 -0.5685 -0.1058
  196DMF     C1 2830   2.030   2.190   3.334 -0.4886  0.2401 -0.6962
  196DMF     N1 2831   2.154   2.251   3.396 -0.5593  0.0543 -0.3112
  196DMF     C2 2832   2.127   2.382   3.448 -0.2735 -0.0773  0.7718
  196DMF     C3 2833   2.277   2.188   3.436  0.6243  0.0579 -0.8000
  196DMF     O1 2834   2.306   2.074   3.409  0.2121  0.6330  0.1240
  196DMF     H1 2835   2.060   2.090   3.302 -2.7206 -1.1723  1.4430
  196DMF     H2 2836   2.011   2.245   3.241  1.0590 -0.8906 -1.6966
  196DMF     H3 2837   1.948   2.198   3.406  0.8013 -0.9882  0.9428
  196DMF     H4 2838   2.094   2.444   3.364 -0.2812 -0.1808  0.6972
  196DMF     H5 2839   2.216   2.432   3.487 -0.0798  0.7218 -0.6613
  196DMF     H6 2840   2.053   2.380   3.529  0.8499 -1.5901  1.8014
  196DMF     H7 2841   2.339   2.262   3.490  0.5524  0.1044 -0.7807
  197DMF     C1 2842   2.621   3.078   3.329 -0.0647  0.5247 -0.0779
  197DMF     N1 2843   2.654   2.951   3.255  0.3115  0.3258  0.3050
  197DMF     C2 2844   2.598   2.823   3.320 -0.2327  0.3199 -0.5076
  197DMF     C3 2845   2.719   2.951   3.131 -0.7797  0.0238 -0.6699
  197DMF     O1 2846   2.751   3.052   3.069  0.4497 -0.0113  0.1879
  197DMF     H1 2847   2.518   3.075   3.366 -0.1564  1.2861 -0.2688
  197DMF     H2 2848   2.627   3.164   3.261  0.8022 -1.7627 -3.0169
  197DMF     H3 2849   2.678   3.085   3.423 -0.3490 -0.6379  0.1942
  197DMF     H4 2850   2.643   2.811   3.419 -0.4940 -0.5159 -0.4829
  197DMF     H5 2851   2.633   2.728   3.276  1.0964  0.8467 -0.5966
  197DMF     H6 2852   2.488   2.822   3.325 -0.1351  0.8568  2.5588
  197DMF     H7 2853   2.747   2.849   3.098  0.1917  0.1222 -0.1783
  198DMF     C1 2854   0.125   1.511   2.231 -0.0564 -0.0765 -0.3506
  198DMF     N1 2855  -0.020   1.490   2.257  0.2605 -0.2311 -0.2232
  198DMF     C2 2856  -0.117   1.600   2.251  0.1247 -0.2572 -0.5827
  198DMF     C3 2857  -0.060   1.353   2.243 -0.1027  0.1987  0.1272
  198DMF     O1 2858   0.014   1.257   2.245  0.6078 -0.3099 -0.5551
  198DMF     H1 2859   0.161   1.426   2.173 -0.3979 -0.0466 -0.6127
  198DMF     H2 2860   0.189   1.498   2.319  2.8045 -2.1437 -2.6423
  198DMF     H3 2861   0.142   1.602   2.173 -0.0092 -0.5642 -1.1108
  198DMF     H4 2862  -0.213   1.564   2.214  0.7454 -1.3607 -1.1477
  198DMF     H5 2863  -0.078   1.689   2.200  1.4754  0.4773  1.6594
  198DMF     H6 2864  -0.133   1.626   2.356 -2.6268 -3.4331 -0.1201
  198DMF     H7 2865  -0.169   1.340   2.239 -0.0494  0.1540 -2.2503
  199DMF     C1 2866   2.683   1.547   2.303  0.3957  1.0873 -0.5994
  199DMF     N1 2867   2.726   1.409   2.274  0.6187  0.3935  0.4014
  199DMF     C2 2868   2.631   1.289   2.275 -0.0969  0.0398  0.1188
  199DMF     C3 2869   2.866   1.383   2.283  0.3080 -0.0247 -0.4485
  199DMF     O1 2870   2.949   1.463   2.320 -0.1090 -0.6132  0.4024
  199DMF     H1 2871   2.584   1.531   2.347  0.1324  2.7534 -0.5638
  199DMF     H2 2872   2.666   1.600   2.208  1.8893  0.7616 -1.0691
  199DMF     H3 2873   2.757   1.587   2.373  0.8666  1.1117 -1.1070
  199DMF     H4 2874   2.575   1.276   2.369 -2.7536  1.2945 -1.2312
  199DMF     H5 2875   2.690   1.205   2.237 -1.7693 -1.7018  1.2977
  199DMF     H6 2876   2.554   1.320   2.203 -0.9818  0.1653  1.0943
  199DMF     H7 2877   2.890   1.278   2.258 -0.3073 -0.6502  1.5314
  200DMF     C1 2878   2.992   0.816   2.718 -0.4687  0.3153 -0.3685
  200DMF     N1 2879   2.951   0.678   2.748 -0.0275 -0.3617 -0.5731
  200DMF     C2 2880   2.982   0.574   2.650  0.5449 -0.0818 -0.3502
  200DMF     C3 2881   2.918   0.648   2.880 -0.0898 -0.2265 -0.0273
  200DMF     O1 2882   2.901   0.725   2.968  0.5351  0.7476 -0.1062
  200DMF     H1 2883   3.085   0.822   2.661 -0.1567 -1.1374 -0.0359
  200DMF     H2 2884   3.014   0.868   2.812 -0.5232  0.8779 -0.6613
  200DMF     H3 2885   2.912   0.871   2.667 -0.7680  0.9255  0.7374
  200DMF     H4 2886   3.082   0.594   2.611  0.8267  2.0960  1.3913
  200DMF     H5 2887   2.911   0.586   2.567  0.0516 -0.1444  0.0545
  200DMF     H6 2888   2.975   0.472   2.690 -2.4390 -0.2225 -1.0606
  200DMF     H7 2889   2.907   0.539   2.898 -0.5644 -0.5093 -1.9530
  201DMF     C1 2890   0.206   1.016   3.765 -0.0866 -0.0703 -0.1107
  201DMF     N1 2891   0.081   0.937   3.766  0.4221  0.0066 -0.1737
  201DMF     C2 2892  -0.042   1.012   3.780  0.2623 -0.5019 -0.3153
  201DMF     C3 2893   0.079   0.799   3.743 -0.6836 -0.4920  1.1886
  201DMF     O1 2894   0.175   0.740   3.701  0.4250 -0.0814  0.5699
  201DMF     H1 2895   0.182   1.114   3.725  0.4352 -0.2616 -0.9061
  201DMF     H2 2896   0.276   0.977   3.690  0.5335  1.5476 -0.3938
  201DMF     H3 2897   0.246   1.025   3.867 -0.8774 -1.3224  0.3219
  201DMF     H4 2898  -0.109   1.003   3.694 -0.6137  0.5464  0.2467
  201DMF     H5 2899  -0.026   1.119   3.800  0.2671 -0.4902 -0.3835
  201DMF     H6 2900  -0.092   0.971   3.869  1.9588 -0.1246  0.8423
  201DMF     H7 2901  -0.017   0.752   3.767 -0.7833 -1.7997 -1.5870
  202DMF     C1 2902   0.708   1.257   3.545 -0.1203  0.4637  0.4476
  202DMF     N1 2903   0.649   1.279   3.677  0.4750  0.4439 -0.0036
  202DMF     C2 2904   0.720   1.224   3.793 -0.3837 -0.2304 -0.1493
  202DMF     C3 2905   0.522   1.338   3.695 -0.5421  0.0215 -0.0668
  202DMF     O1 2906   0.470   1.397   3.604 -0.3021  0.2681  0.2849
  202DMF     H1 2907   0.695   1.159   3.498 -0.9601  1.0869 -0.6254
  202DMF     H2 2908   0.814   1.284   3.532 -0.7161  3.0964  0.8824
  202DMF     H3 2909   0.660   1.326   3.475  1.1514  1.1356  0.2110
  202DMF     H4 2910   0.739   1.320   3.843 -1.9639  1.3222 -2.4110
  202DMF     H5 2911   0.814   1.177   3.761 -0.4828 -0.7971  0.3898
  202DMF     H6 2912   0.659   1.149   3.844 -0.1697 -1.2609 -1.3931
  202DMF     H7 2913   0.473   1.341   3.794 -2.8736  1.3371 -1.2122
  203DMF     C1 2914   3.316   2.170   3.261  1.0554  0.4347  0.9858
  203DMF     N1 2915   3.400   2.090   3.159  0.3752  0.5370 -0.9589
  203DMF     C2 2916   3.365   1.948   3.129  1.0084 -0.4473  0.1217
  203DMF     C3 2917   3.517   2.145   3.098  0.1054 -0.1740 -0.4873
  203DMF     O1 2918   3.546   2.265   3.105  0.2268 -0.3358  0.0493
  203DMF     H1 2919   3.284   2.095   3.334  1.1040 -1.2489 -0.6798
  203DMF     H2 2920   3.231   2.210   3.204  1.2689 -0.0824  0.2973
  203DMF     H3 2921   3.379   2.240   3.316  1.0432  1.9477 -0.8776
  203DMF     H4 2922   3.457   1.889   3.141  0.1109 -1.7408  0.7868
  203DMF     H5 2923   3.318   1.933   3.032  0.2017 -0.4419  0.5071
  203DMF     H6 2924   3.303   1.910   3.211 -0.3859  1.5891  0.0169
  203DMF     H7 2925   3.581   2.074   3.042  1.2504  0.3855  0.0938
  204DMF     C1 2926   1.479   0.367   2.782  0.3006  0.0784 -0.2507
  204DMF     N1 2927   1.455   0.266   2.677 -0.0567  0.5117  0.1229
  204DMF     C2 2928   1.574   0.210   2.615  0.4763 -0.4047 -0.6058
  204DMF     C3 2929   1.326   0.215   2.655  0.0683  0.6481  0.8125
  204DMF     O1 2930   1.227   0.267   2.706 -0.0241 -0.1818  0.1840
  204DMF     H1 2931   1.555   0.331   2.852  1.1897 -0.4859 -1.4865
  204DMF     H2 2932   1.387   0.384   2.839 -0.8416 -1.7703 -1.4965
  204DMF     H3 2933   1.524   0.459   2.745 -1.9475  1.9749  1.6046
  204DMF     H4 2934   1.550   0.152   2.525 -1.4899  0.3275 -0.5842
  204DMF     H5 2935   1.623   0.148   2.691 -0.5581  0.4060  0.7556
  204DMF     H6 2936   1.641   0.292   2.587 -0.6558  0.3985 -1.0174
  204DMF     H7 2937   1.327   0.124   2.591  2.5188 -0.5673  2.4723
  205DMF     C1 2938   2.503   2.574   2.669 -0.4919  0.2239 -0.3061
  205DMF     N1 2939   2.564   2.461   2.589 -0.7778 -0.3638  0.3865
  205DMF     C2 2940   2.673   2.377   2.641  0.2895 -0.0349 -0.0761
  205DMF     C3 2941   2.497   2.419   2.478 -0.0016 -0.2658 -1.4121
  205DMF     O1 2942   2.393   2.476   2.444 -0.0160 -0.5377 -0.2630
  205DMF     H1 2943   2.489   2.666   2.611 -0.6784 -0.8903 -2.0441
  205DMF     H2 2944   2.560   2.604   2.758  0.1749  2.6616 -1.5078
  205DMF     H3 2945   2.405   2.550   2.713 -0.4696  0.9190  0.1376
  205DMF     H4 2946   2.669   2.363   2.749  0.1481 -0.2581 -0.1090
  205DMF     H5 2947   2.771   2.413   2.608  0.1554 -0.3180 -0.7973
  205DMF     H6 2948   2.666   2.275   2.600 -2.3738  0.4902 -1.0384
  205DMF     H7 2949   2.542   2.332   2.427  0.2875 -0.9388 -0.0299
  206DMF     C1 2950   2.324   0.660   2.932 -0.7602 -0.3822  0.9088
  206DMF     N1 2951   2.439   0.706   2.852 -0.2724  0.0040  0.1335
  206DMF     C2 2952   2.565   0.735   2.925 -0.4313 -0.5023 -0.0241
  206DMF     C3 2953   2.452   0.678   2.717 -0.2551 -0.2976 -0.0901
  206DMF     O1 2954   2.353   0.644   2.644 -0.1636  0.2804  0.3540
  206DMF     H1 2955   2.235   0.670   2.869  1.5854  0.7884 -2.3581
  206DMF     H2 2956   2.306   0.723   3.020  1.3515 -0.3788  1.3701
  206DMF     H3 2957   2.332   0.552   2.949 -0.0789 -0.6697 -1.0969
  206DMF     H4 2958   2.612   0.822   2.875  2.5676 -2.8248 -1.3903
  206DMF     H5 2959   2.640   0.657   2.912  1.1518  0.9822 -0.0618
  206DMF     H6 2960   2.553   0.757   3.031 -0.3388 -2.1340  0.3222
  206DMF     H7 2961   2.556   0.690   2.682 -0.2264  0.9394  0.3767
  207DMF     C1 2962   1.190   1.389   2.299  0.5713  0.3675  0.0910
  207DMF     N1 2963   1.074   1.311   2.335 -0.1430  1.1534  0.5754
  207DMF     C2 2964   1.045   1.198   2.259 -0.5306  0.0027 -0.1875
  207DMF     C3 2965   1.008   1.331   2.462 -0.2659 -0.3233  0.4731
  207DMF     O1 2966   1.043   1.417   2.537  0.5052 -0.0981 -0.5487
  207DMF     H1 2967   1.172   1.497   2.302  0.1782  0.3421 -1.0938
  207DMF     H2 2968   1.227   1.369   2.198  1.2555 -2.9061  0.9413
  207DMF     H3 2969   1.271   1.372   2.371  0.2291 -1.8179 -0.0150
  207DMF     H4 2970   1.034   1.104   2.314 -0.0802 -0.8299 -1.4863
  207DMF     H5 2971   1.126   1.171   2.191  0.4031 -1.8854  1.6423
  207DMF     H6 2972   0.960   1.221   2.193  0.6906 -4.2173 -3.4151
  207DMF     H7 2973   0.926   1.260   2.481  1.0245 -1.1167  3.3373
  208DMF     C1 2974   1.178   0.564   3.448  0.1309 -0.0711  0.1096
  208DMF     N1 2975   1.111   0.438   3.486 -0.1284 -0.8389 -0.4302
  208DMF     C2 2976   0.968   0.447   3.522  0.4846 -0.4212 -0.1120
  208DMF     C3 2977   1.174   0.317   3.456 -0.4913  0.2559 -0.2911
  208DMF     O1 2978   1.285   0.308   3.403  0.0490 -0.3762  0.4004
  208DMF     H1 2979   1.124   0.655   3.479 -1.1324 -1.0465  0.8473
  208DMF     H2 2980   1.188   0.562   3.339  2.8064 -2.0370  0.3677
  208DMF     H3 2981   1.275   0.554   3.498  0.3699 -3.3118 -0.8737
  208DMF     H4 2982   0.954   0.452   3.631  2.6660  2.2884  0.0908
  208DMF     H5 2983   0.913   0.361   3.482 -0.0157  0.8122 -2.1178
  208DMF     H6 2984   0.924   0.540   3.484 -0.1325 -0.6763 -0.0225
  208DMF     H7 2985   1.104   0.232   3.470 -0.4148  0.1744 -0.4034
  209DMF     C1 2986   3.131   3.378   2.516  0.3788  0.2997 -0.5603
  209DMF     N1 2987   3.049   3.485   2.574 -0.3419 -0.0718 -0.1829
  209DMF     C2 2988   3.112   3.619   2.606  0.5068  0.2112 -0.2398
  209DMF     C3 2989   2.913   3.455   2.605 -0.0694  0.0183 -0.4446
  209DMF     O1 2990   2.856   3.354   2.576 -0.5180 -0.0940 -0.2477
  209DMF     H1 2991   3.232   3.386   2.559  0.0870 -2.1299  0.6464
  209DMF     H2 2992   3.144   3.388   2.408 -1.0785 -1.9631 -0.9779
  209DMF     H3 2993   3.083   3.283   2.543  0.7405 -0.0421 -1.1226
  209DMF     H4 2994   3.160   3.620   2.704 -0.5070  0.3503  0.2650
  209DMF     H5 2995   3.029   3.691   2.606 -0.1941 -0.5866  0.3987
  209DMF     H6 2996   3.178   3.655   2.527 -0.2359  0.2273 -0.8651
  209DMF     H7 2997   2.861   3.540   2.652 -0.9230 -2.2075  2.7465
  210DMF     C1 2998   0.423   1.498   2.834  0.6941  0.5033  0.6454
  210DMF     N1 2999   0.550   1.547   2.777 -0.0750  0.6195 -0.2514
  210DMF     C2 3000   0.680   1.476   2.812 -0.6323 -0.3631  0.3331
  210DMF     C3 3001   0.542   1.642   2.678  0.5657  0.2423 -0.1509
  210DMF     O1 3002   0.438   1.684   2.633  0.4478  0.3310 -0.2449
  210DMF     H1 3003   0.380   1.415   2.777 -0.6728  0.8940  1.0892
  210DMF     H2 3004   0.348   1.578   2.832 -0.1321 -0.2819  0.2538
  210DMF     H3 3005   0.443   1.470   2.938  0.3019 -2.6113 -0.0765
  210DMF     H4 3006   0.677   1.436   2.914  2.4590  0.8215  0.9336
  210DMF     H5 3007   0.769   1.538   2.801 -1.1418  0.4336  0.6736
  210DMF     H6 3008   0.682   1.393   2.739 -1.7282 -0.2562  0.1597
  210DMF     H7 3009   0.642   1.677   2.645  1.7044 -3.9241 -1.3937
  211DMF     C1 3010   0.655   2.070   2.313 -0.0755  0.0289  0.0139
  211DMF     N1 3011   0.567   1.986   2.405 -0.3213  0.2740 -0.1798
  211DMF     C2 3012   0.576   1.994   2.550 -0.0849 -0.9258  0.9236
  211DMF     C3 3013   0.500   1.881   2.351 -0.0523  0.1684 -0.5651
  211DMF     O1 3014   0.491   1.858   2.234 -0.3107  0.4901  0.1825
  211DMF     H1 3015   0.599   2.092   2.221  2.0714  2.7248 -0.7312
  211DMF     H2 3016   0.745   2.014   2.286 -0.0820  0.9173 -1.9646
  211DMF     H3 3017   0.689   2.161   2.363 -2.1813  0.8441  0.0156
  211DMF     H4 3018   0.563   2.094   2.593  2.9055 -0.0653 -0.0746
  211DMF     H5 3019   0.664   1.940   2.585  1.4976  2.0405  1.7179
  211DMF     H6 3020   0.489   1.939   2.590 -1.9296  1.2780  0.0460
  211DMF     H7 3021   0.455   1.819   2.430  0.8698  1.2229  0.8109
  212DMF     C1 3022   1.757   3.018   2.673 -1.0364 -0.2261  0.1308
  212DMF     N1 3023   1.633   3.079   2.624 -0.1348  0.2627 -0.4989
  212DMF     C2 3024   1.517   2.994   2.576 -0.1586  0.0941 -0.3274
  212DMF     C3 3025   1.627   3.221   2.602 -0.0260 -0.3542 -0.4356
  212DMF     O1 3026   1.722   3.290   2.639 -0.3125 -0.0182 -0.2643
  212DMF     H1 3027   1.812   2.995   2.581 -1.7275 -0.1789 -0.2964
  212DMF     H2 3028   1.731   2.923   2.720 -2.3333  0.2822  0.4691
  212DMF     H3 3029   1.811   3.098   2.726 -1.0968  1.0220 -1.6552
  212DMF     H4 3030   1.429   2.997   2.642 -0.7269  0.7054 -1.1120
  212DMF     H5 3031   1.556   2.895   2.552 -0.9721  0.0230 -1.3938
  212DMF     H6 3032   1.481   3.045   2.486 -0.8925 -0.8361 -0.5653
  212DMF     H7 3033   1.531   3.261   2.566 -0.5629 -0.9037  0.3900
  213DMF     C1 3034   2.577   1.356   2.868  0.8067  0.5114  0.2006
  213DMF     N1 3035   2.454   1.291   2.810  0.5360 -0.0058 -0.2652
  213DMF     C2 3036   2.466   1.173   2.725 -1.0353 -0.2184 -0.2615
  213DMF     C3 3037   2.328   1.338   2.854 -0.0592  0.7772  1.0070
  213DMF     O1 3038   2.306   1.424   2.943 -0.0586  0.1001 -0.7508
  213DMF     H1 3039   2.641   1.398   2.790 -1.3971 -0.2695 -2.1184
  213DMF     H2 3040   2.622   1.284   2.938 -0.3525 -0.8545 -0.4095
  213DMF     H3 3041   2.560   1.449   2.923  3.0015  1.3777 -0.5795
  213DMF     H4 3042   2.419   1.187   2.627 -0.4305  2.6157 -0.1840
  213DMF     H5 3043   2.421   1.090   2.780 -2.3241  0.7455  0.1578
  213DMF     H6 3044   2.572   1.145   2.715 -1.3814 -1.3276 -0.9766
  213DMF     H7 3045   2.244   1.297   2.795  0.8705 -0.1866  0.3303
  214DMF     C1 3046   2.568   1.752   3.269 -0.4545 -0.3528  0.4629
  214DMF     N1 3047   2.590   1.614   3.229  0.2510 -0.3393 -0.0479
  214DMF     C2 3048   2.467   1.528   3.245 -0.8568 -1.2186 -0.0868
  214DMF     C3 3049   2.718   1.559   3.193  0.2949  0.4383  0.1105
  214DMF     O1 3050   2.817   1.627   3.215 -0.8558  0.3453 -0.2913
  214DMF     H1 3051   2.661   1.800   3.298 -0.2479 -0.1295 -0.5653
  214DMF     H2 3052   2.496   1.752   3.353 -0.3264 -0.5914  0.5747
  214DMF     H3 3053   2.529   1.806   3.182  1.3733 -0.6481 -0.5534
  214DMF     H4 3054   2.435   1.497   3.145  0.2301 -0.6105 -0.6345
  214DMF     H5 3055   2.384   1.585   3.290 -0.7313 -0.4984 -0.7371
  214DMF     H6 3056   2.491   1.443   3.309 -1.1824 -1.6493 -0.5288
  214DMF     H7 3057   2.709   1.456   3.155 -0.9830  0.9969 -1.1303
  215DMF     C1 3058   2.935   1.830   2.818  0.3661 -0.3452 -0.4797
  215DMF     N1 3059   2.838   1.813   2.918 -0.4022  0.6044  0.3764
  215DMF     C2 3060   2.824   1.913   3.027 -0.4805 -0.6590 -0.1825
  215DMF     C3 3061   2.739   1.711   2.901  0.6918  0.1309  0.2404
  215DMF     O1 3062   2.741   1.631   2.811  0.3480 -0.1420 -0.3401
  215DMF     H1 3063   3.029   1.778   2.842  0.0057 -2.0784 -2.6414
  215DMF     H2 3064   2.954   1.938   2.809 -0.0415 -0.4209 -2.4553
  215DMF     H3 3065   2.908   1.795   2.718  0.0554  2.3443 -1.3785
  215DMF     H4 3066   2.926   1.938   3.059  0.0255 -0.9902 -1.4672
  215DMF     H5 3067   2.778   1.871   3.117  0.4498 -1.5866 -0.1289
  215DMF     H6 3068   2.767   2.003   3.001  1.6882  1.0261  0.7433
  215DMF     H7 3069   2.659   1.724   2.976 -0.0886 -0.2416 -0.5263
  216DMF     C1 3070   3.324   1.511   2.718  0.4184 -0.9140 -0.4733
  216DMF     N1 3071   3.404   1.623   2.652  0.0348  0.1359 -1.4156
  216DMF     C2 3072   3.351   1.761   2.654 -0.2805  0.4387  0.7777
  216DMF     C3 3073   3.532   1.593   2.611  0.5239  0.0690  0.2813
  216DMF     O1 3074   3.582   1.478   2.611  0.3298 -0.2469  0.3271
  216DMF     H1 3075   3.350   1.495   2.823 -2.3064  1.4371  0.6037
  216DMF     H2 3076   3.348   1.422   2.658  3.6666 -0.1409 -0.4103
  216DMF     H3 3077   3.217   1.533   2.708  0.4111 -1.0347 -0.6625
  216DMF     H4 3078   3.404   1.822   2.727  1.8551 -0.3924 -0.0233
  216DMF     H5 3079   3.244   1.763   2.681 -0.6982 -1.0453 -0.6841
  216DMF     H6 3080   3.364   1.814   2.559  0.3983  0.8517  1.0967
  216DMF     H7 3081   3.590   1.674   2.564 -1.3415  1.7727  0.8224
  217DMF     C1 3082   1.544   1.940   3.086  0.9493 -0.3341 -0.9602
  217DMF     N1 3083   1.630   2.060   3.104  1.1374  0.4174  0.2196
  217DMF     C2 3084   1.755   2.058   3.037  0.7448  0.4825 -0.1036
  217DMF     C3 3085   1.581   2.169   3.178  0.1545 -0.2492 -0.3374
  217DMF     O1 3086   1.484   2.162   3.245  0.0101  0.0710  0.3005
  217DMF     H1 3087   1.464   1.945   3.161  0.3244  2.8037 -1.7277
  217DMF     H2 3088   1.612   1.855   3.095 -1.8877 -2.4247  1.7140
  217DMF     H3 3089   1.509   1.942   2.982  1.5541  1.4703 -1.1570
  217DMF     H4 3090   1.780   1.962   2.989  1.9332 -0.0974  1.6348
  217DMF     H5 3091   1.838   2.085   3.103  0.2968 -0.0680  0.6886
  217DMF     H6 3092   1.762   2.132   2.956 -1.4820 -2.7316 -3.3960
  217DMF     H7 3093   1.642   2.261   3.170 -0.2041 -0.0088 -0.3014
  218DMF     C1 3094   1.238   2.057   2.361 -0.0896  0.1993  1.0741
  218DMF     N1 3095   1.101   2.069   2.383 -0.2135 -0.3756 -1.0545
  218DMF     C2 3096   1.018   2.143   2.280  0.3258 -0.8556  0.5630
  218DMF     C3 3097   1.042   2.015   2.496 -0.1655  0.4167 -0.0436
  218DMF     O1 3098   1.103   1.948   2.575 -0.3421 -0.3116 -0.3503
  218DMF     H1 3099   1.268   1.951   2.366  1.8779  0.6986  0.5588
  218DMF     H2 3100   1.302   2.101   2.439 -0.0240 -3.0759  2.9901
  218DMF     H3 3101   1.273   2.092   2.263  0.6649 -1.1915  0.8295
  218DMF     H4 3102   1.008   2.081   2.191 -0.5132 -0.9892  0.7465
  218DMF     H5 3103   1.069   2.238   2.256  0.7611 -1.7662 -2.3264
  218DMF     H6 3104   0.921   2.157   2.329  0.1215  1.5487 -0.4407
  218DMF     H7 3105   0.934   2.039   2.507 -0.9190 -2.6074 -0.2752
  219DMF     C1 3106   0.342   0.813   3.109 -0.0783  0.0008  0.4206
  219DMF     N1 3107   0.350   0.697   3.201  0.0910  0.2686  0.6257
  219DMF     C2 3108   0.452   0.587   3.178  0.2970  0.0342 -0.4568
  219DMF     C3 3109   0.265   0.685   3.310 -0.3247  0.0368 -0.1845
  219DMF     O1 3110   0.185   0.771   3.344 -0.3390  0.1233  0.2018
  219DMF     H1 3111   0.441   0.841   3.070 -0.3043 -0.0702 -0.2173
  219DMF     H2 3112   0.294   0.898   3.160  0.1532 -0.6664  1.7740
  219DMF     H3 3113   0.291   0.794   3.014 -0.4402 -0.0827  0.6309
  219DMF     H4 3114   0.548   0.630   3.147  0.4627  0.1701  0.2286
  219DMF     H5 3115   0.418   0.526   3.093  3.1717 -1.8218 -0.3468
  219DMF     H6 3116   0.462   0.528   3.270  0.1711 -0.0066 -0.4689
  219DMF     H7 3117   0.294   0.599   3.373 -0.8825  0.7883  1.1069
  220DMF     C1 3118   2.963   2.364   2.339 -0.9481  0.2530  0.1049
  220DMF     N1 3119   2.907   2.501   2.293  0.4264 -0.2583 -0.1332
  220DMF     C2 3120   3.009   2.609   2.264 -0.0029 -0.4335  0.6598
  220DMF     C3 3121   2.782   2.507   2.233  0.2134  0.8907 -0.1748
  220DMF     O1 3122   2.714   2.405   2.197 -0.1570  0.4921 -0.2037
  220DMF     H1 3123   2.923   2.320   2.431 -2.1327  0.5885 -0.2333
  220DMF     H2 3124   3.072   2.376   2.339 -0.9272  0.1600 -2.0022
  220DMF     H3 3125   2.933   2.299   2.256 -0.2047 -1.0297  0.8393
  220DMF     H4 3126   2.970   2.705   2.299 -0.3400 -0.9806  1.8448
  220DMF     H5 3127   3.036   2.617   2.159  1.5585 -3.4364  0.7792
  220DMF     H6 3128   3.103   2.593   2.318  2.3885  0.8136 -2.9344
  220DMF     H7 3129   2.744   2.609   2.215 -1.0562  0.6137  0.8570
  221DMF     C1 3130   1.831   0.495   2.980  0.2003  0.4339 -1.1398
  221DMF     N1 3131   1.930   0.382   2.954  0.6454  0.0432 -0.4115
  221DMF     C2 3132   2.071   0.415   2.995 -0.4372  0.1339 -0.0068
  221DMF     C3 3133   1.887   0.252   2.910 -0.8322 -1.0487 -0.2039
  221DMF     O1 3134   1.771   0.226   2.893 -0.3758  0.1488  0.7771
  221DMF     H1 3135   1.888   0.589   2.973  0.6875  0.2373  0.0660
  221DMF     H2 3136   1.790   0.499   3.082  0.9779  2.2018 -0.8649
  221DMF     H3 3137   1.755   0.489   2.902  0.6584  0.9524 -1.6349
  221DMF     H4 3138   2.089   0.352   3.083 -0.0494  0.2288 -0.0156
  221DMF     H5 3139   2.073   0.517   3.035 -0.1644 -0.5164  1.6692
  221DMF     H6 3140   2.149   0.401   2.918 -0.2816 -0.9381  0.3501
  221DMF     H7 3141   1.976   0.189   2.895  1.7516  1.9260  1.8898
  222DMF     C1 3142   0.411   1.707   3.110 -0.6825 -0.5895  0.0753
  222DMF     N1 3143   0.290   1.740   3.032  0.7131 -0.1064  0.4327
  222DMF     C2 3144   0.168   1.661   3.071 -0.4966  0.2627 -0.2576
  222DMF     C3 3145   0.287   1.846   2.942 -0.3524  0.3242  0.2346
  222DMF     O1 3146   0.376   1.925   2.932  0.1098  0.0560  0.0536
  222DMF     H1 3147   0.404   1.767   3.202  0.9747  1.3534 -1.0043
  222DMF     H2 3148   0.493   1.734   3.042 -0.2907 -1.0193  0.3681
  222DMF     H3 3149   0.421   1.604   3.146  0.5149 -0.7250 -0.5937
  222DMF     H4 3150   0.079   1.711   3.031 -2.1446 -0.8610  1.9279
  222DMF     H5 3151   0.152   1.665   3.180 -0.3377 -0.4438 -0.2062
  222DMF     H6 3152   0.182   1.560   3.032  0.9014  0.5364 -0.5131
  222DMF     H7 3153   0.191   1.852   2.889  0.8541  1.0173 -1.9518
  223DMF     C1 3154   0.867   0.833   3.358 -0.3770 -0.7799 -0.8121
  223DMF     N1 3155   0.815   0.916   3.252 -0.4311 -0.1904 -0.7639
  223DMF     C2 3156   0.687   0.972   3.272 -0.2415 -0.9150 -0.4133
  223DMF     C3 3157   0.892   0.947   3.140  0.1834 -0.2390 -0.0352
  223DMF     O1 3158   1.005   0.909   3.126 -0.0270  0.2576 -0.4220
  223DMF     H1 3159   0.975   0.818   3.351 -0.2158 -0.4999  0.8852
  223DMF     H2 3160   0.815   0.737   3.357 -2.1201  0.0099  3.3718
  223DMF     H3 3161   0.851   0.886   3.454  1.7922 -1.8369  0.1552
  223DMF     H4 3162   0.677   1.077   3.242 -0.6054 -0.4798  1.1475
  223DMF     H5 3163   0.664   0.974   3.380 -0.8687 -1.6530 -0.5244
  223DMF     H6 3164   0.606   0.913   3.227 -1.9610  1.4490 -0.5143
  223DMF     H7 3165   0.829   1.000   3.067 -2.0523 -1.4948  0.9301
  224DMF     C1 3166   2.306   0.072   3.492 -0.1365  0.9312  0.1278
  224DMF     N1 3167   2.247  -0.050   3.444  0.0686 -0.2021 -0.4492
  224DMF     C2 3168   2.137  -0.037   3.335 -0.2628 -0.2473  0.0412
  224DMF     C3 3169   2.281  -0.171   3.498 -0.4401  0.1607  0.1613
  224DMF     O1 3170   2.363  -0.191   3.593  0.8640  0.0813 -0.1070
  224DMF     H1 3171   2.410   0.072   3.458 -0.5948 -0.0588 -1.3328
  224DMF     H2 3172   2.299   0.083   3.600 -0.0328 -0.0153  0.2340
  224DMF     H3 3173   2.258   0.162   3.450 -0.8172  0.2400 -0.5844
  224DMF     H4 3174   2.084   0.059   3.335  1.9648  1.0226  0.9850
  224DMF     H5 3175   2.066  -0.119   3.354 -0.9925  0.6910  1.4505
  224DMF     H6 3176   2.190  -0.041   3.239 -1.1477  1.1991 -0.5272
  224DMF     H7 3177   2.229  -0.254   3.446 -1.2954  0.9415 -0.2308
  225DMF     C1 3178   1.841   1.378   3.332 -0.2966 -0.0863  0.1167
  225DMF     N1 3179   1.769   1.268   3.281  0.3405  0.5870  0.4862
  225DMF     C2 3180   1.841   1.161   3.195 -0.0616 -0.0395  0.1309
  225DMF     C3 3181   1.626   1.255   3.319 -0.1581 -0.2399  0.3221
  225DMF     O1 3182   1.566   1.343   3.369  0.3632  0.0109 -0.3616
  225DMF     H1 3183   1.907   1.341   3.412  2.0299 -0.5913 -1.9855
  225DMF     H2 3184   1.782   1.466   3.359 -3.1155 -1.7148 -0.6075
  225DMF     H3 3185   1.906   1.416   3.253  0.3473 -0.8898  0.2458
  225DMF     H4 3186   1.946   1.167   3.226  0.2330 -0.1209 -0.8332
  225DMF     H5 3187   1.833   1.175   3.086  1.2902 -0.7165 -0.0708
  225DMF     H6 3188   1.799   1.061   3.215  1.9928 -1.1208 -0.7315
  225DMF     H7 3189   1.583   1.156   3.296 -1.3368  0.9512 -3.0234
  226DMF     C1 3190   2.347   2.884   3.583 -0.0517  0.4581  0.0368
  226DMF     N1 3191   2.198   2.879   3.575  0.2287 -0.1667  0.3094
  226DMF     C2 3192   2.116   2.947   3.666 -0.0530 -0.4784 -0.1846
  226DMF     C3 3193   2.144   2.818   3.462 -0.3115  0.1289  0.0928
  226DMF     O1 3194   2.211   2.759   3.379 -0.4265 -0.2180 -0.5584
  226DMF     H1 3195   2.381   2.932   3.490  1.4901  1.4538  1.1016
  226DMF     H2 3196   2.398   2.788   3.593 -0.8922 -0.0246 -0.2011
  226DMF     H3 3197   2.362   2.943   3.674 -1.4330 -0.2318  0.7252
  226DMF     H4 3198   2.009   2.930   3.648  0.1760 -0.9431 -1.1198
  226DMF     H5 3199   2.126   3.056   3.655  1.5754 -0.4336  1.4563
  226DMF     H6 3200   2.130   2.907   3.767  1.0283  0.8994  0.2243
  226DMF     H7 3201   2.035   2.830   3.453 -0.3041  1.1570  1.1522
  227DMF     C1 3202   2.559   0.691   3.641 -0.0382  0.2614  0.3257
  227DMF     N1 3203   2.642   0.788   3.721 -0.6389  0.4679  0.3450
  227DMF     C2 3204   2.694   0.730   3.847  0.2916 -0.2606  0.1462
  227DMF     C3 3205   2.689   0.920   3.679  0.2620  0.1617 -0.1257
  227DMF     O1 3206   2.655   0.970   3.568 -0.1836 -0.1641  0.2368
  227DMF     H1 3207   2.610   0.659   3.550  2.1520  1.7115  1.0128
  227DMF     H2 3208   2.461   0.729   3.609 -0.0814  0.1502  0.3260
  227DMF     H3 3209   2.553   0.602   3.706 -2.5096  0.0139 -0.1957
  227DMF     H4 3210   2.749   0.636   3.836  1.7580  0.4905  1.0420
  227DMF     H5 3211   2.616   0.699   3.917 -1.1443 -1.2556 -1.8203
  227DMF     H6 3212   2.766   0.804   3.883 -0.5146  0.6041 -0.0054
  227DMF     H7 3213   2.760   0.963   3.751  0.7870  0.7221 -0.9673
  228DMF     C1 3214   0.180   2.762   2.588  0.1004  0.2035  0.5318
  228DMF     N1 3215   0.065   2.674   2.597  0.7252 -0.1902 -0.0475
  228DMF     C2 3216   0.065   2.561   2.694  0.3950  0.2207  0.5272
  228DMF     C3 3217  -0.049   2.685   2.509  0.2012  0.0003  0.5896
  228DMF     O1 3218  -0.056   2.782   2.434 -0.0026 -0.2503 -0.5087
  228DMF     H1 3219   0.197   2.804   2.488 -1.0181  2.9342  1.4547
  228DMF     H2 3220   0.268   2.712   2.630  0.0559  0.7355  1.2559
  228DMF     H3 3221   0.171   2.845   2.659  4.1130  0.0365  1.3796
  228DMF     H4 3222   0.163   2.513   2.704 -0.4289 -1.7016 -0.4503
  228DMF     H5 3223  -0.006   2.482   2.667  1.1430  0.3499 -1.9785
  228DMF     H6 3224   0.039   2.599   2.794 -2.1357 -0.5099  0.1809
  228DMF     H7 3225  -0.124   2.604   2.513  1.3278 -1.0878  0.0115
  229DMF     C1 3226   2.243   0.467   3.477 -0.3880  0.1847 -0.3985
  229DMF     N1 3227   2.193   0.579   3.385 -0.3326 -0.0115 -0.2132
  229DMF     C2 3228   2.054   0.616   3.392  0.6664 -0.3191  0.3859
  229DMF     C3 3229   2.269   0.639   3.289  0.0794  0.4995 -0.0895
  229DMF     O1 3230   2.381   0.610   3.264  0.6120  0.3651 -0.2611
  229DMF     H1 3231   2.347   0.494   3.501 -0.5663  0.7401 -0.2419
  229DMF     H2 3232   2.247   0.369   3.427  0.0081 -0.9464  1.8246
  229DMF     H3 3233   2.180   0.461   3.566  0.1706 -1.3962 -0.0891
  229DMF     H4 3234   1.997   0.555   3.463 -0.4593  0.7776  0.4569
  229DMF     H5 3235   2.007   0.604   3.294  0.4155 -3.1254  0.8205
  229DMF     H6 3236   2.043   0.720   3.426  1.6183 -0.0119 -0.2193
  229DMF     H7 3237   2.226   0.723   3.233  2.4325  1.2339 -0.8387
  230DMF     C1 3238   2.506   3.043   2.677 -0.0544 -0.5848 -0.3193
  230DMF     N1 3239   2.581   3.167   2.690  0.0328  0.4080 -0.3363
  230DMF     C2 3240   2.658   3.180   2.819 -0.5097  0.2136 -0.2601
  230DMF     C3 3241   2.578   3.263   2.586 -0.2248  0.1397 -0.0224
  230DMF     O1 3242   2.513   3.241   2.481  0.1344 -0.0505 -0.1248
  230DMF     H1 3243   2.400   3.070   2.668 -0.1474 -1.1313 -0.8534
  230DMF     H2 3244   2.524   2.974   2.760  0.4259 -1.3735 -1.0799
  230DMF     H3 3245   2.552   2.994   2.591 -1.4326 -1.1689 -0.7386
  230DMF     H4 3246   2.711   3.275   2.830 -1.6098  0.8541 -0.4593
  230DMF     H5 3247   2.731   3.098   2.813 -2.2159 -1.1843 -2.8480
  230DMF     H6 3248   2.593   3.157   2.905  0.5333 -0.0900  0.4604
  230DMF     H7 3249   2.632   3.356   2.612 -0.3314  0.2414 -0.1623
  231DMF     C1 3250   3.022   2.994   2.225  0.1541 -0.0152 -0.4219
  231DMF     N1 3251   2.903   3.068   2.273 -0.1200  0.1756 -0.0851
  231DMF     C2 3252   2.772   3.007   2.296  0.3008  0.2024 -0.7954
  231DMF     C3 3253   2.908   3.208   2.278 -0.7896 -0.1424  0.6275
  231DMF     O1 3254   3.017   3.265   2.271 -0.2579 -0.0305 -0.6846
  231DMF     H1 3255   3.089   2.977   2.311  0.9271 -0.0193 -1.0282
  231DMF     H2 3256   3.077   3.053   2.151  1.2950 -0.8738 -0.2775
  231DMF     H3 3257   2.995   2.895   2.187 -0.6444  0.0491 -0.0503
  231DMF     H4 3258   2.780   2.899   2.275 -1.4163  0.0193 -0.5981
  231DMF     H5 3259   2.704   3.044   2.218  1.3745 -1.1481 -2.4160
  231DMF     H6 3260   2.738   3.035   2.396  3.6660  0.5402  0.3129
  231DMF     H7 3261   2.808   3.252   2.290 -0.6972 -0.1902  1.6930
  232DMF     C1 3262   0.653   1.628   3.726  0.7154  0.3050  0.0590
  232DMF     N1 3263   0.669   1.732   3.623  0.2470  0.0401 -0.5450
  232DMF     C2 3264   0.549   1.750   3.541  0.0393 -0.2595 -1.1032
  232DMF     C3 3265   0.792   1.794   3.601 -0.3242  0.3174 -0.1469
  232DMF     O1 3266   0.888   1.778   3.669  0.1730  0.6232  0.2243
  232DMF     H1 3267   0.549   1.611   3.754  0.6025  0.8088 -0.0674
  232DMF     H2 3268   0.709   1.665   3.813  0.6606  0.5154  0.0031
  232DMF     H3 3269   0.701   1.530   3.710  2.2888  1.0195  0.3176
  232DMF     H4 3270   0.557   1.848   3.493  0.7304  0.9586  1.3756
  232DMF     H5 3271   0.463   1.747   3.609 -0.6039 -0.2153 -1.9114
  232DMF     H6 3272   0.551   1.675   3.462  1.8092  0.1105 -1.4533
  232DMF     H7 3273   0.783   1.865   3.517 -1.2779  0.5911  0.1859
  233DMF     C1 3274   1.516   0.943   2.254 -0.4079  0.2519  0.3487
  233DMF     N1 3275   1.450   0.807   2.242  0.3440 -0.2154  0.1521
  233DMF     C2 3276   1.535   0.695   2.237  0.3034 -0.6605 -0.1702
  233DMF     C3 3277   1.304   0.788   2.247  0.0677 -0.0376  0.1029
  233DMF     O1 3278   1.223   0.874   2.273  0.5140 -0.3306 -0.0863
  233DMF     H1 3279   1.454   1.015   2.199 -0.3800  0.3027  0.3837
  233DMF     H2 3280   1.609   0.937   2.197 -0.4323  0.7791  0.2555
  233DMF     H3 3281   1.535   0.989   2.352  0.7284  0.5310  0.0064
  233DMF     H4 3282   1.615   0.716   2.165 -0.1781 -0.2935 -0.6000
  233DMF     H5 3283   1.486   0.604   2.200  0.4701 -1.7180  2.1340
  233DMF     H6 3284   1.568   0.679   2.341  1.6313  0.7482 -0.3484
  233DMF     H7 3285   1.277   0.683   2.225  1.9274 -0.1906 -1.6113
  234DMF     C1 3286   0.636   0.054   2.569  0.2024 -0.8121 -0.2750
  234DMF     N1 3287   0.755   0.119   2.643 -0.0482 -0.2187  0.1476
  234DMF     C2 3288   0.758   0.267   2.656  0.5455  0.0099  0.3234
  234DMF     C3 3289   0.882   0.044   2.641 -0.3794  0.5262 -0.0534
  234DMF     O1 3290   0.898  -0.072   2.604  0.5013  0.1381 -0.2809
  234DMF     H1 3291   0.547   0.116   2.585 -0.4778 -2.2557  1.7065
  234DMF     H2 3292   0.610  -0.044   2.609 -0.3886 -1.0407 -1.2025
  234DMF     H3 3293   0.645   0.051   2.459  2.0841  0.4162 -0.1815
  234DMF     H4 3294   0.663   0.290   2.707 -1.2844 -2.3239 -1.8977
  234DMF     H5 3295   0.751   0.321   2.561 -1.0015  2.4851  1.7796
  234DMF     H6 3296   0.835   0.306   2.724 -1.2670  0.8244  1.9513
  234DMF     H7 3297   0.966   0.102   2.684 -0.1507 -0.0971  0.3473
  235DMF     C1 3298   2.723   0.685   2.242  0.2253 -0.1320 -0.7848
  235DMF     N1 3299   2.832   0.789   2.241  0.5293 -0.1147 -0.7089
  235DMF     C2 3300   2.974   0.747   2.259  0.3112 -0.4109  0.4505
  235DMF     C3 3301   2.793   0.924   2.233 -0.4339 -0.8083 -0.9135
  235DMF     O1 3302   2.684   0.966   2.225  0.0327 -0.2439  0.1458
  235DMF     H1 3303   2.711   0.646   2.344  0.7855  0.2094 -0.5835
  235DMF     H2 3304   2.734   0.602   2.171  1.3938  0.8244 -1.7471
  235DMF     H3 3305   2.627   0.731   2.216 -0.5642 -1.4922 -0.2782
  235DMF     H4 3306   3.024   0.794   2.173 -0.4929 -1.0380 -0.3732
  235DMF     H5 3307   2.986   0.638   2.255  2.9875 -0.1441  0.7229
  235DMF     H6 3308   3.015   0.788   2.352 -0.7603  0.4613  0.5549
  235DMF     H7 3309   2.883   0.985   2.253  0.1352 -2.5841  2.2428
  236DMF     C1 3310   1.259   0.775   0.422 -0.1260 -0.4244 -0.0978
  236DMF     N1 3311   1.127   0.738   0.382  0.4609  0.7071 -0.5900
  236DMF     C2 3312   1.103   0.599   0.335  0.0336  0.0321 -0.1116
  236DMF     C3 3313   1.016   0.825   0.374 -0.4714  0.3033 -0.2332
  236DMF     O1 3314   1.020   0.940   0.422 -0.3377  0.0147 -0.0166
  236DMF     H1 3315   1.294   0.700   0.494 -0.4908 -1.5801 -1.1051
  236DMF     H2 3316   1.249   0.874   0.468 -2.4061 -1.1374  0.9746
  236DMF     H3 3317   1.317   0.772   0.329  1.8207  0.3074  1.0466
  236DMF     H4 3318   1.007   0.590   0.284 -1.0121 -1.2576  2.0047
  236DMF     H5 3319   1.088   0.538   0.425 -0.3476  0.5552  0.1840
  236DMF     H6 3320   1.183   0.561   0.270  0.5023 -0.0374  0.4961
  236DMF     H7 3321   0.926   0.778   0.330 -1.3048  1.2750  0.4233
  237DMF     C1 3322   1.483   3.425   2.905  0.7020  0.0900  0.4119
  237DMF     N1 3323   1.336   3.433   2.902  0.2332  0.5378 -0.3262
  237DMF     C2 3324   1.273   3.494   3.022  0.5586  0.3952 -0.1003
  237DMF     C3 3325   1.257   3.371   2.799  0.3509 -0.5990 -0.8730
  237DMF     O1 3326   1.301   3.315   2.700 -0.3026 -0.1399 -0.3420
  237DMF     H1 3327   1.514   3.448   2.802  1.4412 -3.2797 -0.1884
  237DMF     H2 3328   1.507   3.319   2.918 -1.6945 -0.5866 -0.4526
  237DMF     H3 3329   1.537   3.489   2.976  1.2587  0.3303 -0.2274
  237DMF     H4 3330   1.163   3.487   3.022  0.6202 -0.8337 -0.5470
  237DMF     H5 3331   1.283   3.603   3.015 -1.5417  0.5107 -2.1045
  237DMF     H6 3332   1.318   3.459   3.115  1.5632 -0.7724 -1.0054
  237DMF     H7 3333   1.150   3.374   2.828  0.3617 -0.4179 -0.8543
  238DMF     C1 3334   3.256   1.411   3.180  0.5134 -0.0038  0.4197
  238DMF     N1 3335   3.160   1.514   3.199  0.2882 -0.3056  0.1264
  238DMF     C2 3336   3.092   1.515   3.328  0.1691 -0.1735 -0.3013
  238DMF     C3 3337   3.143   1.621   3.108 -0.4056  0.7390 -0.4021
  238DMF     O1 3338   3.210   1.630   3.007 -0.1469 -0.1143  0.0961
  238DMF     H1 3339   3.226   1.322   3.237 -1.7865  0.1308 -0.5239
  238DMF     H2 3340   3.351   1.446   3.223  0.8237  0.2376 -0.4505
  238DMF     H3 3341   3.273   1.391   3.073  1.7847  1.4394  0.3340
  238DMF     H4 3342   3.072   1.616   3.365  2.2012 -0.6985  2.4568
  238DMF     H5 3343   3.155   1.468   3.405  0.5894  0.1456 -0.4452
  238DMF     H6 3344   3.000   1.457   3.320 -0.9641  1.6806 -1.0574
  238DMF     H7 3345   3.075   1.702   3.141 -2.0577 -0.2015 -1.4111
  239DMF     C1 3346   0.443   1.274   2.270  0.1078  0.0391 -0.5277
  239DMF     N1 3347   0.573   1.350   2.289 -0.0610  0.0107  0.1914
  239DMF     C2 3348   0.558   1.497   2.328  0.4369 -0.1750 -0.2799
  239DMF     C3 3349   0.695   1.282   2.268 -0.2808  0.2399 -0.2695
  239DMF     O1 3350   0.701   1.167   2.244  0.1837 -0.2445  0.2882
  239DMF     H1 3351   0.351   1.333   2.259 -2.3087 -3.4316  0.1423
  239DMF     H2 3352   0.424   1.201   2.350  0.8737  1.4212  0.9646
  239DMF     H3 3353   0.446   1.216   2.177 -0.1895 -0.0251 -0.4989
  239DMF     H4 3354   0.613   1.499   2.423  1.9178 -1.9483 -1.0886
  239DMF     H5 3355   0.449   1.516   2.328  0.4341 -0.1782  1.3371
  239DMF     H6 3356   0.597   1.577   2.263 -1.8729  1.4258  0.2136
  239DMF     H7 3357   0.783   1.349   2.260 -1.0261  1.1656 -0.7642
  240DMF     C1 3358   0.776   2.514   2.630  0.1585 -0.4384  0.1404
  240DMF     N1 3359   0.903   2.440   2.616 -0.1461 -0.2932 -0.5251
  240DMF     C2 3360   1.029   2.517   2.610 -0.8411 -0.3394  0.4189
  240DMF     C3 3361   0.905   2.307   2.606 -0.1074  0.4396 -0.4041
  240DMF     O1 3362   0.808   2.236   2.625 -0.1678 -0.4552 -0.5042
  240DMF     H1 3363   0.784   2.612   2.582 -2.5141 -0.3899 -0.2874
  240DMF     H2 3364   0.754   2.538   2.735 -0.4115 -0.5970  0.0600
  240DMF     H3 3365   0.689   2.466   2.585 -1.3361 -1.0241  3.4962
  240DMF     H4 3366   1.102   2.445   2.571 -3.0677 -1.8254 -1.1299
  240DMF     H5 3367   1.060   2.561   2.706 -0.1633  1.7952 -0.7689
  240DMF     H6 3368   1.015   2.590   2.530  2.1179  0.2719  0.4094
  240DMF     H7 3369   1.000   2.266   2.565 -0.1144 -0.8536  0.8252
  241DMF     C1 3370   0.140   3.226   2.688  0.4297 -0.2352  0.2862
  241DMF     N1 3371   0.078   3.093   2.734 -0.6698 -0.1022  0.1212
  241DMF     C2 3372  -0.030   3.029   2.655 -0.2554  0.4597  0.0579
  241DMF     C3 3373   0.114   3.037   2.857  0.2338 -0.2096  0.6998
  241DMF     O1 3374   0.190   3.098   2.926 -0.0639 -0.0240 -0.3259
  241DMF     H1 3375   0.066   3.274   2.622 -0.7964 -0.8675  1.1731
  241DMF     H2 3376   0.243   3.213   2.651 -0.0980 -0.1073 -1.2780
  241DMF     H3 3377   0.140   3.285   2.780 -1.9864 -0.3816  0.4026
  241DMF     H4 3378  -0.035   2.920   2.667 -0.5451  0.5341  0.6433
  241DMF     H5 3379  -0.019   3.050   2.548  0.9621  1.0703  0.3041
  241DMF     H6 3380  -0.123   3.072   2.695 -1.0964 -1.8844  0.6948
  241DMF     H7 3381   0.060   2.943   2.877  0.7137 -0.3432  1.4094
  242DMF     C1 3382   3.046   3.043   2.954 -0.0316 -0.3019 -0.1832
  242DMF     N1 3383   3.187   3.085   2.977  1.1307  0.1665  0.6031
  242DMF     C2 3384   3.262   3.015   3.083  0.0165  0.0746 -0.4106
  242DMF     C3 3385   3.223   3.207   2.931  0.4627 -0.4572  0.3117
  242DMF     O1 3386   3.148   3.281   2.871 -0.3474  0.5665  0.3560
  242DMF     H1 3387   3.024   3.052   2.847 -1.3284 -2.7508 -0.1622
  242DMF     H2 3388   2.986   3.114   3.011  1.3875  0.5577  0.2571
  242DMF     H3 3389   3.031   2.939   2.985 -2.5875 -0.3085 -1.2874
  242DMF     H4 3390   3.331   3.086   3.132  2.1494 -1.4067 -1.1626
  242DMF     H5 3391   3.336   2.948   3.037  0.7056  1.3358 -1.1955
  242DMF     H6 3392   3.198   2.953   3.147 -2.5321  1.9383 -1.0610
  242DMF     H7 3393   3.323   3.234   2.970  0.8103  0.5073 -1.2229
  243DMF     C1 3394   3.143   0.396   0.065 -0.2485  0.1596  0.2886
  243DMF     N1 3395   3.121   0.344  -0.072 -0.5970 -0.1454  0.0885
  243DMF     C2 3396   3.140   0.440  -0.184  0.5564 -0.2076  0.7368
  243DMF     C3 3397   3.071   0.217  -0.100 -1.1842  0.3237  0.5510
  243DMF     O1 3398   3.054   0.139  -0.010  0.3512 -0.1349  0.2854
  243DMF     H1 3399   3.120   0.324   0.144  0.4180 -0.4475 -0.0688
  243DMF     H2 3400   3.066   0.472   0.082  1.0537  1.6596 -0.3263
  243DMF     H3 3401   3.244   0.435   0.080  0.1640 -0.1297 -1.5675
  243DMF     H4 3402   3.046   0.496  -0.192  0.1268 -1.0767 -0.5315
  243DMF     H5 3403   3.159   0.397  -0.283 -2.5057  1.0937 -0.4843
  243DMF     H6 3404   3.221   0.511  -0.160 -0.5943  1.2867  0.2762
  243DMF     H7 3405   3.057   0.192  -0.207  1.1263  0.3148  0.2240
  244DMF     C1 3406   2.420   1.393   0.601  0.1816 -0.0626 -0.9396
  244DMF     N1 3407   2.363   1.477   0.493  0.4151 -0.0715  0.1624
  244DMF     C2 3408   2.317   1.407   0.375  0.2159  0.3423 -0.5234
  244DMF     C3 3409   2.335   1.618   0.516 -0.0534 -0.1807  0.0625
  244DMF     O1 3410   2.379   1.672   0.619  0.3883 -0.3326  0.3732
  244DMF     H1 3411   2.530   1.399   0.600  0.4384 -1.7296  3.7672
  244DMF     H2 3412   2.378   1.292   0.598 -2.3599  0.7720  2.5927
  244DMF     H3 3413   2.377   1.426   0.697  1.0192 -0.1408 -0.5358
  244DMF     H4 3414   2.208   1.398   0.381  0.3951 -1.0404  1.0555
  244DMF     H5 3415   2.363   1.308   0.372 -1.6771 -0.6154  1.1096
  244DMF     H6 3416   2.337   1.474   0.290 -2.1437  0.0230 -1.3762
  244DMF     H7 3417   2.279   1.676   0.440  1.0765  0.2975 -0.4025
  245DMF     C1 3418   0.216   3.341   3.220 -0.3437  0.3949 -0.2547
  245DMF     N1 3419   0.142   3.468   3.240  0.9598  0.2581 -0.0917
  245DMF     C2 3420   0.209   3.590   3.266 -0.2624 -0.6984 -0.2323
  245DMF     C3 3421   0.003   3.460   3.265  0.0276 -0.0886  0.0819
  245DMF     O1 3422  -0.068   3.363   3.240  0.1173  0.5934  0.0965
  245DMF     H1 3423   0.171   3.282   3.139 -1.8280 -0.4161  1.1055
  245DMF     H2 3424   0.205   3.284   3.314  1.2763 -1.7457 -1.3173
  245DMF     H3 3425   0.321   3.365   3.203 -0.2942  0.0460 -0.4443
  245DMF     H4 3426   0.316   3.563   3.264 -0.5645 -1.8547 -0.9973
  245DMF     H5 3427   0.189   3.627   3.368 -0.2679 -0.7591 -0.2118
  245DMF     H6 3428   0.195   3.668   3.190 -0.9730 -2.2054 -1.6632
  245DMF     H7 3429  -0.042   3.556   3.298 -1.2380 -0.8491  0.6297
  246DMF     C1 3430   2.916   2.903   3.632 -0.0953  0.5005  0.1418
  246DMF     N1 3431   3.016   2.805   3.587 -0.0207  0.2054  0.5366
  246DMF     C2 3432   3.141   2.783   3.663 -0.2178 -1.0768 -0.5142
  246DMF     C3 3433   2.986   2.724   3.482 -0.6536  0.7174  0.5805
  246DMF     O1 3434   2.877   2.725   3.427  0.1002  0.0702  0.3831
  246DMF     H1 3435   2.905   2.915   3.741 -2.8415  0.5328 -0.1102
  246DMF     H2 3436   2.820   2.880   3.584 -0.3628 -0.7435  1.2472
  246DMF     H3 3437   2.946   3.006   3.606  1.8261  0.1552  0.9425
  246DMF     H4 3438   3.224   2.842   3.621  0.0570 -0.0678  1.3942
  246DMF     H5 3439   3.176   2.679   3.666  0.1516 -0.8914  2.2915
  246DMF     H6 3440   3.144   2.811   3.768  2.3492 -0.8067 -0.6293
  246DMF     H7 3441   3.069   2.659   3.450 -2.1447 -1.2671  0.6478
  247DMF     C1 3442   1.184   2.095   2.832  0.0059  0.2286  0.4146
  247DMF     N1 3443   1.177   2.161   2.972 -0.2589  0.1794  0.1178
  247DMF     C2 3444   1.153   2.084   3.090 -0.8248 -0.2312 -0.2110
  247DMF     C3 3445   1.216   2.295   2.983 -0.2848 -0.4149 -0.0202
  247DMF     O1 3446   1.220   2.375   2.891  0.6169  0.0600 -0.1848
  247DMF     H1 3447   1.281   2.119   2.786 -0.9277 -0.8807 -2.2509
  247DMF     H2 3448   1.101   2.135   2.772  0.6260 -0.4163 -0.9079
  247DMF     H3 3449   1.177   1.986   2.836 -1.3537  0.3467  1.3524
  247DMF     H4 3450   1.104   1.989   3.069 -2.6834  0.7303 -0.3164
  247DMF     H5 3451   1.088   2.134   3.162 -1.3246 -0.8828 -0.2136
  247DMF     H6 3452   1.255   2.056   3.121 -1.0186  1.0255  1.6085
  247DMF     H7 3453   1.239   2.325   3.087 -0.8844  0.5211 -0.1519
  248DMF     C1 3454   1.610   0.445   3.412  0.9106  0.2256  0.9239
  248DMF     N1 3455   1.613   0.396   3.271  0.6764 -0.2646  0.3000
  248DMF     C2 3456   1.507   0.441   3.185  0.0896  0.7101  0.3779
  248DMF     C3 3457   1.707   0.301   3.222 -0.4526 -0.1461  0.0632
  248DMF     O1 3458   1.818   0.288   3.269  0.0442  0.5554 -0.1290
  248DMF     H1 3459   1.541   0.530   3.422 -4.0287 -3.4513 -0.0108
  248DMF     H2 3460   1.709   0.470   3.451  1.4120 -0.8545  0.3764
  248DMF     H3 3461   1.568   0.362   3.470 -0.0937 -0.8630 -1.2800
  248DMF     H4 3462   1.555   0.453   3.088  0.7321  0.6417  0.6865
  248DMF     H5 3463   1.465   0.534   3.227 -0.1237  0.8413 -0.1242
  248DMF     H6 3464   1.431   0.362   3.190  1.0967 -0.4166 -1.4688
  248DMF     H7 3465   1.686   0.251   3.126 -3.2595 -0.5219  0.8208
  249DMF     C1 3466   1.236   1.040   2.594  0.1208  0.1646  0.7483
  249DMF     N1 3467   1.166   0.987   2.712  0.2623 -0.0359 -0.1521
  249DMF     C2 3468   1.247   0.937   2.827 -0.7736 -0.1496 -0.3934
  249DMF     C3 3469   1.027   0.964   2.709  0.0074  0.8711  0.3370
  249DMF     O1 3470   0.962   0.986   2.607 -0.3707 -0.0349  0.1569
  249DMF     H1 3471   1.294   0.961   2.545 -0.2344 -0.5319  1.4389
  249DMF     H2 3472   1.311   1.118   2.611  0.1235  1.4287 -4.1885
  249DMF     H3 3473   1.161   1.092   2.534  1.5050  0.7030 -0.5432
  249DMF     H4 3474   1.194   0.971   2.917  0.0581 -0.8627  0.3782
  249DMF     H5 3475   1.348   0.981   2.832  0.6294 -3.2135 -0.1866
  249DMF     H6 3476   1.255   0.827   2.825 -0.4051 -0.1410  0.3465
  249DMF     H7 3477   0.985   0.913   2.798 -0.3703 -0.4792 -0.6018
  250DMF     C1 3478   3.016   2.860   2.601  0.0729 -0.4043  0.6985
  250DMF     N1 3479   2.928   2.754   2.650  0.1451  0.3116  0.2027
  250DMF     C2 3480   2.813   2.781   2.738  0.6088  0.0910  0.2334
  250DMF     C3 3481   2.965   2.616   2.636 -0.7249  0.1782 -0.0483
  250DMF     O1 3482   3.067   2.579   2.582  0.4225 -0.1205 -0.3269
  250DMF     H1 3483   3.110   2.821   2.560  0.3106  0.0610  0.7971
  250DMF     H2 3484   3.037   2.920   2.691  0.7314  0.7256 -0.1908
  250DMF     H3 3485   2.963   2.922   2.528  2.1905 -1.8358 -2.1614
  250DMF     H4 3486   2.854   2.791   2.839  1.7371 -0.5160 -0.1456
  250DMF     H5 3487   2.732   2.709   2.721  0.9913 -0.3434  0.2359
  250DMF     H6 3488   2.774   2.882   2.721  1.6293  0.9226  2.6517
  250DMF     H7 3489   2.893   2.548   2.685 -0.1795  0.7851  1.6229
  251DMF     C1 3490   0.790   1.372   3.242 -0.6219 -0.3064 -0.0063
  251DMF     N1 3491   0.898   1.437   3.330  0.1205 -0.2483  0.7082
  251DMF     C2 3492   0.885   1.578   3.378  0.0134  0.0804 -0.1110
  251DMF     C3 3493   1.014   1.372   3.343  0.0896 -0.6363 -0.9289
  251DMF     O1 3494   1.025   1.256   3.311 -0.5564 -0.3858  0.5146
  251DMF     H1 3495   0.828   1.333   3.148  0.1596  0.6858 -0.1104
  251DMF     H2 3496   0.722   1.447   3.201 -1.7149 -1.4513 -0.3238
  251DMF     H3 3497   0.735   1.295   3.298  0.5239 -1.9203 -1.0603
  251DMF     H4 3498   0.817   1.632   3.310 -0.7943 -0.3260  0.3655
  251DMF     H5 3499   0.984   1.624   3.384 -0.8149  1.8868  0.0330
  251DMF     H6 3500   0.842   1.569   3.478  2.1157  1.1317  0.9268
  251DMF     H7 3501   1.094   1.435   3.384 -2.7143  1.3297  1.7555
  252DMF     C1 3502   2.381   2.444   0.094 -0.1384  0.3010 -0.1055
  252DMF     N1 3503   2.347   2.301   0.128 -0.0122  0.3038  0.3454
  252DMF     C2 3504   2.276   2.277   0.259  0.2542  0.4390 -0.1005
  252DMF     C3 3505   2.401   2.196   0.065 -0.3283  0.0885  0.6249
  252DMF     O1 3506   2.487   2.208  -0.020 -0.0366 -0.4636 -0.0596
  252DMF     H1 3507   2.287   2.485   0.056 -0.1118 -0.1955 -0.7306
  252DMF     H2 3508   2.460   2.453   0.017 -0.0380 -1.4391 -0.2334
  252DMF     H3 3509   2.390   2.504   0.185 -1.0635 -1.8358  1.4459
  252DMF     H4 3510   2.339   2.224   0.331 -1.6807  0.6385  1.7632
  252DMF     H5 3511   2.179   2.227   0.252  0.1223  0.6067  0.5704
  252DMF     H6 3512   2.257   2.370   0.313 -2.2264 -0.6523  0.9452
  252DMF     H7 3513   2.366   2.097   0.099  0.5650  0.6922  3.4122
  253DMF     C1 3514   1.664   1.539   3.056  0.5912  1.0176  0.2829
  253DMF     N1 3515   1.661   1.502   2.913  0.4339 -0.4322 -0.1249
  253DMF     C2 3516   1.570   1.575   2.824  0.0078 -0.5702 -0.0263
  253DMF     C3 3517   1.753   1.415   2.867  0.1141 -0.1197  0.3845
  253DMF     O1 3518   1.845   1.362   2.934  0.0352  0.4181  0.0165
  253DMF     H1 3519   1.685   1.445   3.108 -0.2504  0.0400 -1.1294
  253DMF     H2 3520   1.570   1.584   3.091  0.2305 -0.1877  0.8929
  253DMF     H3 3521   1.739   1.614   3.085  1.9940 -0.5587  0.7980
  253DMF     H4 3522   1.546   1.502   2.746  1.3717 -1.4573  0.3484
  253DMF     H5 3523   1.618   1.663   2.781 -0.7906 -0.0347  0.1722
  253DMF     H6 3524   1.477   1.599   2.878 -0.4073 -0.3669 -0.8284
  253DMF     H7 3525   1.746   1.397   2.759  1.8726 -0.9034  0.3772
  254DMF     C1 3526   1.643   3.002   3.468 -0.2317  0.5491 -0.1548
  254DMF     N1 3527   1.624   2.857   3.514 -0.5963 -0.7646 -0.5932
  254DMF     C2 3528   1.743   2.786   3.579 -0.9117 -0.0266 -0.0423
  254DMF     C3 3529   1.495   2.796   3.510  0.1582  0.0590 -1.2843
  254DMF     O1 3530   1.401   2.850   3.456 -0.3805 -0.1181  0.1920
  254DMF     H1 3531   1.641   3.000   3.358  0.4398 -1.1167 -0.1650
  254DMF     H2 3532   1.742   3.032   3.504  0.8477 -1.7166 -1.0744
  254DMF     H3 3533   1.559   3.057   3.512  0.1573  1.8842 -1.0423
  254DMF     H4 3534   1.809   2.722   3.520  1.9128  1.7345  1.1204
  254DMF     H5 3535   1.704   2.715   3.653 -0.6878 -0.8868 -0.7522
  254DMF     H6 3536   1.808   2.856   3.633  1.0890 -0.2290 -2.1370
  254DMF     H7 3537   1.484   2.700   3.564 -1.1753  1.2648  0.6484
  255DMF     C1 3538   2.864   2.151   3.555 -0.0019  0.3744  0.3014
  255DMF     N1 3539   2.846   2.006   3.527 -0.9598  0.1946 -0.2687
  255DMF     C2 3540   2.762   1.926   3.612  0.1301 -0.7989 -0.0038
  255DMF     C3 3541   2.894   1.956   3.401 -1.0093 -0.6181  0.2478
  255DMF     O1 3542   2.957   2.017   3.315 -0.0771 -0.3051  0.0935
  255DMF     H1 3543   2.893   2.162   3.660 -1.5296 -1.1869  0.9083
  255DMF     H2 3544   2.774   2.210   3.539 -0.9382 -1.0559  0.2067
  255DMF     H3 3545   2.934   2.196   3.483 -0.9623  3.0403  0.9912
  255DMF     H4 3546   2.687   1.875   3.549  0.0305 -0.0413 -0.5029
  255DMF     H5 3547   2.705   1.991   3.679 -0.2351 -0.6527 -0.4497
  255DMF     H6 3548   2.828   1.860   3.669  1.8000 -0.7653 -1.8449
  255DMF     H7 3549   2.848   1.858   3.381 -2.6474  0.3951 -1.2020
  256DMF     C1 3550   2.092   0.643   2.247 -0.2960 -0.3744  0.2984
  256DMF     N1 3551   2.218   0.565   2.229 -0.0346 -0.1938  0.3897
  256DMF     C2 3552   2.353   0.632   2.242  0.5472 -0.0278 -0.0103
  256DMF     C3 3553   2.209   0.430   2.221 -0.2931 -0.0018 -0.0750
  256DMF     O1 3554   2.107   0.364   2.235  0.0369 -0.9301  0.4138
  256DMF     H1 3555   2.008   0.579   2.216 -0.1921 -0.6139  0.5072
  256DMF     H2 3556   2.096   0.736   2.189  3.0133 -1.3520 -1.1644
  256DMF     H3 3557   2.089   0.672   2.353 -0.4985  1.0527 -0.0834
  256DMF     H4 3558   2.392   0.703   2.167 -0.2380  0.7897  0.3405
  256DMF     H5 3559   2.419   0.546   2.230 -0.0710 -0.7876  2.0149
  256DMF     H6 3560   2.370   0.689   2.334  0.1673 -2.8033  1.8011
  256DMF     H7 3561   2.304   0.377   2.204  0.3076  0.7283  0.9432
  257DMF     C1 3562   1.624   1.047   2.961  0.3198  0.2539 -0.4972
  257DMF     N1 3563   1.620   0.954   2.840  0.0421 -0.2971  0.8319
  257DMF     C2 3564   1.616   1.014   2.704 -0.5047 -0.4000 -0.5894
  257DMF     C3 3565   1.640   0.811   2.850  0.3097  0.3587  0.2433
  257DMF     O1 3566   1.634   0.751   2.956 -0.3529  0.4005 -0.0171
  257DMF     H1 3567   1.551   1.020   3.039 -0.1868 -0.8321 -1.3246
  257DMF     H2 3568   1.613   1.147   2.917  0.7821 -0.3458 -2.0093
  257DMF     H3 3569   1.726   1.036   2.998 -0.4775 -2.2328  1.0855
  257DMF     H4 3570   1.671   1.108   2.701 -1.3101  0.1029  0.2630
  257DMF     H5 3571   1.512   1.033   2.678  0.1707  2.1968 -1.5336
  257DMF     H6 3572   1.653   0.941   2.630 -1.1466 -1.2079 -0.1269
  257DMF     H7 3573   1.650   0.762   2.752  1.1984 -0.0292  0.5241
  258DMF     C1 3574   2.969   1.404   3.714  0.4386  0.1638  0.4683
  258DMF     N1 3575   2.831   1.425   3.676  0.3925  0.0814  0.5487
  258DMF     C2 3576   2.804   1.516   3.562  0.0753  0.3065  0.2511
  258DMF     C3 3577   2.736   1.332   3.716 -0.4596 -0.0137  0.0498
  258DMF     O1 3578   2.752   1.236   3.787 -0.3823  0.1419 -0.0427
  258DMF     H1 3579   2.977   1.333   3.796  1.0456 -1.5116 -1.0069
  258DMF     H2 3580   3.018   1.501   3.728 -0.9561  1.1388 -1.2059
  258DMF     H3 3581   3.028   1.361   3.632 -0.6864 -0.2176 -0.1438
  258DMF     H4 3582   2.697   1.526   3.542  0.2873  2.3787  0.0066
  258DMF     H5 3583   2.856   1.485   3.471  0.0737 -0.9724  0.6851
  258DMF     H6 3584   2.839   1.618   3.585  0.6464  0.4555 -1.2264
  258DMF     H7 3585   2.643   1.360   3.664 -2.3501 -1.9433  2.3067
  259DMF     C1 3586   0.559   2.913   2.851  0.4111  0.1706 -0.2117
  259DMF     N1 3587   0.528   2.957   2.717  0.5695  0.2897 -0.1740
  259DMF     C2 3588   0.530   3.098   2.696 -0.4926  0.1367  0.2851
  259DMF     C3 3589   0.514   2.865   2.610  0.7446 -0.0207  0.4871
  259DMF     O1 3590   0.508   2.741   2.617 -0.2763 -0.4877  0.4540
  259DMF     H1 3591   0.504   2.968   2.928  0.2321 -1.4100  0.7830
  259DMF     H2 3592   0.666   2.917   2.874  0.3392 -1.3545  0.3876
  259DMF     H3 3593   0.531   2.809   2.866  3.0695 -0.1857  2.6690
  259DMF     H4 3594   0.588   3.120   2.605 -0.0949  0.6578  0.6640
  259DMF     H5 3595   0.565   3.153   2.784  1.5185 -0.7626  0.0865
  259DMF     H6 3596   0.426   3.126   2.675 -0.5149 -0.4292 -0.4085
  259DMF     H7 3597   0.498   2.925   2.518 -1.7051  0.5586  1.2698
  260DMF     C1 3598   2.136   1.102   3.437  0.1774 -0.7244 -0.4012
  260DMF     N1 3599   2.285   1.092   3.418  0.4706  0.2446 -0.4210
  260DMF     C2 3600   2.349   1.215   3.395 -0.1056 -0.2554 -0.7505
  260DMF     C3 3601   2.341   0.972   3.443 -0.4781 -0.3940  0.4277
  260DMF     O1 3602   2.278   0.878   3.490 -0.1725  0.2987  0.8455
  260DMF     H1 3603   2.095   1.025   3.371  2.0659 -0.1689 -2.2619
  260DMF     H2 3604   2.101   1.201   3.406  1.6470 -0.3644 -0.9529
  260DMF     H3 3605   2.107   1.088   3.542  0.8194  0.3232 -0.0751
  260DMF     H4 3606   2.326   1.299   3.461  0.3707  1.3897 -2.6098
  260DMF     H5 3607   2.335   1.245   3.290 -0.5743  0.2283 -0.5480
  260DMF     H6 3608   2.454   1.188   3.409  0.5341  2.2086 -0.6308
  260DMF     H7 3609   2.446   0.966   3.409 -0.6326 -1.3035  0.0853
  261DMF     C1 3610   2.105   2.297   2.309  0.2308 -1.0319  0.1501
  261DMF     N1 3611   1.961   2.278   2.269 -0.2343  0.3163 -0.3769
  261DMF     C2 3612   1.868   2.394   2.243 -0.0205 -0.2470  0.4942
  261DMF     C3 3613   1.923   2.152   2.220 -0.5050  0.1527 -0.4440
  261DMF     O1 3614   1.998   2.057   2.225 -0.0074 -0.0548  0.1475
  261DMF     H1 3615   2.121   2.397   2.352 -0.3773 -0.5591 -0.6962
  261DMF     H2 3616   2.169   2.294   2.220 -0.0516  0.6801 -0.1268
  261DMF     H3 3617   2.126   2.229   2.392  0.7561 -0.0410  0.8455
  261DMF     H4 3618   1.924   2.483   2.213 -0.9207  0.4293  0.7960
  261DMF     H5 3619   1.803   2.412   2.329 -0.2980  0.8317  0.0609
  261DMF     H6 3620   1.806   2.379   2.154  0.2067 -0.2678  0.3380
  261DMF     H7 3621   1.824   2.154   2.171 -1.0992  3.1348  0.7596
  262DMF     C1 3622   1.067   1.104   0.050 -0.4001 -0.1166 -0.1074
  262DMF     N1 3623   1.109   1.049  -0.077  0.1091 -0.4058  0.0592
  262DMF     C2 3624   1.053   1.095  -0.206  0.0482  0.7691 -0.5189
  262DMF     C3 3625   1.216   0.950  -0.074 -0.3559 -0.3243 -0.4479
  262DMF     O1 3626   1.262   0.917   0.036 -0.0465  0.2040  0.2721
  262DMF     H1 3627   1.014   1.197   0.026  2.3575  1.4072 -0.4305
  262DMF     H2 3628   1.157   1.125   0.108 -1.6767  1.6170  1.3119
  262DMF     H3 3629   1.010   1.026   0.103  2.0544 -2.4957 -0.8580
  262DMF     H4 3630   1.078   1.032  -0.292  0.0915  0.2511 -0.1233
  262DMF     H5 3631   1.090   1.189  -0.249  0.6377  1.2097  0.9223
  262DMF     H6 3632   0.943   1.094  -0.208  0.0374  1.8117 -2.6888
  262DMF     H7 3633   1.247   0.909  -0.172  1.1554  0.3078 -0.2481
  263DMF     C1 3634   0.730   3.220   2.323  0.0163 -0.1179 -1.2606
  263DMF     N1 3635   0.605   3.223   2.256 -0.0910 -0.1417 -0.5735
  263DMF     C2 3636   0.526   3.352   2.267  0.4489  0.0907  0.3204
  263DMF     C3 3637   0.535   3.104   2.239  0.9077 -0.3294  0.1336
  263DMF     O1 3638   0.572   2.992   2.265 -0.4345 -0.5586  0.1592
  263DMF     H1 3639   0.807   3.283   2.277  1.5302 -0.4354  0.7543
  263DMF     H2 3640   0.768   3.117   2.322 -1.4570 -0.6835 -0.2956
  263DMF     H3 3641   0.718   3.247   2.429  1.0000  3.4557 -1.9948
  263DMF     H4 3642   0.485   3.377   2.365 -0.8559 -1.3968  0.1760
  263DMF     H5 3643   0.446   3.349   2.193  0.3377 -0.2944  0.4584
  263DMF     H6 3644   0.595   3.434   2.240  0.6719  0.1643  1.1000
  263DMF     H7 3645   0.429   3.118   2.208  0.8841  0.2397  0.4604
  264DMF     C1 3646   2.536   2.079   2.430 -0.3103  0.4097 -0.9604
  264DMF     N1 3647   2.449   2.000   2.349 -0.6005 -0.0480 -0.6815
  264DMF     C2 3648   2.308   2.034   2.346 -0.4286  0.4077  0.0561
  264DMF     C3 3649   2.504   1.900   2.270  0.2232  0.1805 -0.7763
  264DMF     O1 3650   2.624   1.869   2.263 -0.2018  0.0472 -0.0956
  264DMF     H1 3651   2.609   2.015   2.481 -1.1891  0.0562 -0.1546
  264DMF     H2 3652   2.478   2.134   2.505  2.0836  0.2707  1.0715
  264DMF     H3 3653   2.592   2.138   2.356 -1.0470  1.6399 -0.5444
  264DMF     H4 3654   2.295   2.124   2.285 -1.4928 -0.0769 -0.4447
  264DMF     H5 3655   2.275   2.042   2.450 -1.7582  1.1381 -0.4040
  264DMF     H6 3656   2.245   1.962   2.292 -0.1297  2.4947 -3.1912
  264DMF     H7 3657   2.421   1.868   2.205 -0.7394  1.6535 -0.2859
  265DMF     C1 3658   0.071   0.169   2.697 -0.6245 -0.4941  0.3910
  265DMF     N1 3659  -0.004   0.214   2.818  0.0660 -0.3679 -0.2573
  265DMF     C2 3660  -0.013   0.116   2.936  0.6894 -0.5519  0.2574
  265DMF     C3 3661  -0.061   0.345   2.812  0.3024 -0.0028  0.2091
  265DMF     O1 3662  -0.034   0.421   2.723  0.1088  0.3603 -0.2856
  265DMF     H1 3663   0.095   0.251   2.629 -0.7775 -0.1435  0.7546
  265DMF     H2 3664   0.019   0.097   2.633 -0.0203  1.2507 -2.1143
  265DMF     H3 3665   0.159   0.117   2.736  0.6228 -0.5042 -2.3470
  265DMF     H4 3666  -0.119   0.103   2.961  0.9563 -0.8253  1.2832
  265DMF     H5 3667   0.037   0.163   3.021  0.0983 -0.0809  0.3471
  265DMF     H6 3668   0.048   0.027   2.919  0.3996 -0.8709  0.8611
  265DMF     H7 3669  -0.128   0.374   2.895  0.9849  0.2170  0.6888
  266DMF     C1 3670   1.056   3.136   2.254 -0.3380 -0.1197  0.2402
  266DMF     N1 3671   1.189   3.074   2.251  0.1384 -0.2947  0.1922
  266DMF     C2 3672   1.303   3.165   2.270 -0.3480 -0.4294  0.5185
  266DMF     C3 3673   1.217   2.941   2.211  0.0515 -0.2189  0.3175
  266DMF     O1 3674   1.126   2.860   2.196 -0.3746  0.3689  0.1718
  266DMF     H1 3675   1.059   3.245   2.258 -1.2941 -0.1292  1.5363
  266DMF     H2 3676   1.014   3.110   2.352  0.0812  1.0484  0.7329
  266DMF     H3 3677   0.980   3.109   2.179 -0.8269  1.0319  0.3218
  266DMF     H4 3678   1.405   3.125   2.265  0.3931  1.5339 -0.5535
  266DMF     H5 3679   1.296   3.222   2.363 -2.7194 -0.5059  0.4223
  266DMF     H6 3680   1.293   3.248   2.199 -0.3662  0.0264  1.0534
  266DMF     H7 3681   1.326   2.930   2.195  0.2766  1.4334  0.6204
  267DMF     C1 3682   2.009   2.659   3.082  0.4846 -0.6586  0.6007
  267DMF     N1 3683   1.882   2.619   3.132 -0.4457 -0.8646  0.2255
  267DMF     C2 3684   1.814   2.723   3.208 -0.2345 -0.5255 -0.3168
  267DMF     C3 3685   1.831   2.492   3.115 -0.0528  0.0140  0.2645
  267DMF     O1 3686   1.883   2.396   3.059 -0.2573  0.5974 -0.4070
  267DMF     H1 3687   2.086   2.650   3.159  1.8056  0.3245 -0.5682
  267DMF     H2 3688   2.007   2.765   3.053  1.2337 -0.0845  2.5716
  267DMF     H3 3689   2.022   2.601   2.990  1.2169 -0.6804  0.7143
  267DMF     H4 3690   1.719   2.691   3.252 -0.5284 -0.2610 -0.7549
  267DMF     H5 3691   1.794   2.813   3.147 -0.1629  0.3032  0.8725
  267DMF     H6 3692   1.867   2.764   3.294 -1.9908 -0.8432  0.9448
  267DMF     H7 3693   1.734   2.480   3.167 -0.4143  1.7375 -0.0004
  268DMF     C1 3694   2.331   2.915   2.234  0.4779 -0.8855 -0.2006
  268DMF     N1 3695   2.336   2.768   2.236  0.6432 -0.1638 -0.3892
  268DMF     C2 3696   2.216   2.688   2.246 -0.5515 -0.3612  0.2622
  268DMF     C3 3697   2.463   2.705   2.231 -0.9397 -0.1876 -0.5390
  268DMF     O1 3698   2.565   2.768   2.208  0.3939  0.2586  0.1737
  268DMF     H1 3699   2.353   2.962   2.331 -2.1442 -0.4691  0.2189
  268DMF     H2 3700   2.232   2.949   2.202  0.6512 -1.1563 -1.0300
  268DMF     H3 3701   2.405   2.948   2.160  3.2824 -3.5130  1.2798
  268DMF     H4 3702   2.248   2.584   2.260  1.7616  0.7054  3.3622
  268DMF     H5 3703   2.154   2.706   2.157  2.7104 -0.3913 -2.0915
  268DMF     H6 3704   2.145   2.717   2.325  0.0829  0.1036  0.6609
  268DMF     H7 3705   2.461   2.594   2.231  0.2280 -0.2220 -0.7726
  269DMF     C1 3706   0.918   2.887   2.743 -0.6826  0.0050  0.3821
  269DMF     N1 3707   1.058   2.859   2.700  0.8883 -0.4026  0.0590
  269DMF     C2 3708   1.112   2.909   2.569  0.0210  0.8825  0.4465
  269DMF     C3 3709   1.140   2.788   2.789 -0.4184  0.1409  0.2010
  269DMF     O1 3710   1.109   2.759   2.901 -0.3421 -0.8494  0.4785
  269DMF     H1 3711   0.836   2.857   2.675 -0.8398  1.6718 -0.1743
  269DMF     H2 3712   0.894   2.993   2.751 -3.2448 -0.7270  3.8199
  269DMF     H3 3713   0.896   2.838   2.839  0.1349 -0.1210  0.5074
  269DMF     H4 3714   1.186   2.831   2.545 -1.9576 -0.8116 -0.2910
  269DMF     H5 3715   1.163   3.007   2.566 -1.4480  1.7064  1.7485
  269DMF     H6 3716   1.036   2.920   2.490  1.2507 -0.1425 -0.9113
  269DMF     H7 3717   1.244   2.768   2.757  0.0135  1.2331  0.9222
  270DMF     C1 3718   1.203   3.076   3.004  0.1639 -0.4052 -0.4262
  270DMF     N1 3719   1.339   3.061   3.035 -0.7241 -0.3782  0.8818
  270DMF     C2 3720   1.425   2.992   2.938 -0.3024  0.0460 -0.0446
  270DMF     C3 3721   1.393   3.091   3.164 -0.7016 -0.1574  0.2466
  270DMF     O1 3722   1.332   3.158   3.250  0.5720 -0.1687 -0.0336
  270DMF     H1 3723   1.159   2.975   3.004 -0.1769 -0.2609  0.2177
  270DMF     H2 3724   1.189   3.125   2.907  0.8001  2.5979  0.9459
  270DMF     H3 3725   1.147   3.130   3.081  1.4113  2.6539 -1.5919
  270DMF     H4 3726   1.374   2.968   2.844  0.7604 -0.4894 -0.4946
  270DMF     H5 3727   1.442   2.897   2.990 -2.1407  0.9477  2.3027
  270DMF     H6 3728   1.518   3.049   2.924  0.8719 -1.7461  0.3973
  270DMF     H7 3729   1.496   3.053   3.178 -1.0089 -0.2843  2.3621
  271DMF     C1 3730   1.425   2.539   3.302 -0.4337 -0.5705  0.8222
  271DMF     N1 3731   1.378   2.599   3.176 -0.1260 -0.7595 -0.5125
  271DMF     C2 3732   1.294   2.722   3.179  0.1666  1.1228 -0.4690
  271DMF     C3 3733   1.426   2.550   3.055  0.4460 -0.1309 -0.0240
  271DMF     O1 3734   1.506   2.459   3.046 -0.6100  0.3569 -0.1412
  271DMF     H1 3735   1.374   2.580   3.391 -0.0770  1.2384  0.2031
  271DMF     H2 3736   1.532   2.561   3.306 -0.8391  2.0297 -1.2744
  271DMF     H3 3737   1.411   2.430   3.297 -1.0363 -0.4381 -0.5295
  271DMF     H4 3738   1.247   2.730   3.277 -0.3681  2.3648 -0.8211
  271DMF     H5 3739   1.218   2.717   3.099  1.2905  0.1051 -1.5012
  271DMF     H6 3740   1.361   2.808   3.166  0.8961  0.5596 -0.4651
  271DMF     H7 3741   1.385   2.616   2.976  2.3470  2.2220  0.9050
  272DMF     C1 3742   1.024   0.085   2.296 -0.0514  0.0766 -0.1551
  272DMF     N1 3743   0.980   0.223   2.278 -0.1687 -0.3923  0.2203
  272DMF     C2 3744   1.088   0.323   2.277 -0.2450 -0.3619 -0.4786
  272DMF     C3 3745   0.843   0.260   2.262  0.4529  0.4466  0.5297
  272DMF     O1 3746   0.755   0.176   2.248 -0.4757  0.7797  0.2459
  272DMF     H1 3747   1.014   0.037   2.198  0.2246  3.8420 -2.1227
  272DMF     H2 3748   0.954   0.036   2.364 -0.8632 -0.2316 -1.1852
  272DMF     H3 3749   1.128   0.081   2.331 -0.7780 -2.1032  1.8480
  272DMF     H4 3750   1.082   0.409   2.209 -0.4160 -1.6723 -2.1701
  272DMF     H5 3751   1.185   0.279   2.252  0.6864  2.2795 -1.7341
  272DMF     H6 3752   1.090   0.357   2.381 -0.2325 -1.3820 -0.1418
  272DMF     H7 3753   0.828   0.369   2.258  0.3243  0.4082 -0.0841
  273DMF     C1 3754   2.106   2.136   2.913 -0.2006  0.5531  0.2377
  273DMF     N1 3755   2.220   2.237   2.888 -0.4516  0.1756  0.0474
  273DMF     C2 3756   2.232   2.345   2.983 -0.2716  0.2235  0.1063
  273DMF     C3 3757   2.279   2.262   2.760  0.4607  0.5928  0.2687
  273DMF     O1 3758   2.275   2.182   2.670 -0.0582  0.7354  0.1784
  273DMF     H1 3759   2.082   2.078   2.823  1.0743 -2.2012  1.6121
  273DMF     H2 3760   2.023   2.189   2.962  0.5603 -0.0463  2.2505
  273DMF     H3 3761   2.138   2.067   2.992  2.4912  2.0749  0.5532
  273DMF     H4 3762   2.164   2.324   3.068 -0.2321 -0.0513  0.0699
  273DMF     H5 3763   2.208   2.443   2.939  3.4520  1.8130  1.4741
  273DMF     H6 3764   2.333   2.352   3.025  0.4175 -2.2190 -1.0316
  273DMF     H7 3765   2.337   2.356   2.765 -0.9812  1.4154  2.5284
  274DMF     C1 3766   2.656   0.067   2.226 -0.1446 -0.6419  0.9039
  274DMF     N1 3767   2.753   0.172   2.279 -0.3960  0.5160  0.3406
  274DMF     C2 3768   2.900   0.144   2.278 -0.4185  0.9258 -0.1541
  274DMF     C3 3769   2.714   0.301   2.312  0.3912  0.4322  0.5939
  274DMF     O1 3770   2.602   0.342   2.293 -0.3975  0.2830  0.0070
  274DMF     H1 3771   2.712  -0.026   2.206 -1.2253 -1.0461 -0.2274
  274DMF     H2 3772   2.592   0.092   2.142  1.5105 -1.1873 -0.5574
  274DMF     H3 3773   2.585   0.044   2.306 -0.7859 -0.5876  0.3529
  274DMF     H4 3774   2.947   0.224   2.338  0.0001 -0.1277  0.9516
  274DMF     H5 3775   2.940   0.154   2.177  1.0778 -0.9202  0.2370
  274DMF     H6 3776   2.917   0.049   2.330  0.7660  1.2661  0.1102
  274DMF     H7 3777   2.799   0.368   2.331 -0.0737  1.4352 -0.7839
  275DMF     C1 3778   0.256   2.258   2.709  0.0514 -0.3019  0.4210
  275DMF     N1 3779   0.362   2.357   2.694  0.0259  0.3946 -0.0396
  275DMF     C2 3780   0.400   2.432   2.809  0.4922  0.9276  1.0429
  275DMF     C3 3781   0.406   2.401   2.568 -0.2354 -0.0058  0.5079
  275DMF     O1 3782   0.370   2.353   2.460  0.9559 -0.3994 -0.5657
  275DMF     H1 3783   0.225   2.240   2.813  2.3666 -1.4677  0.9418
  275DMF     H2 3784   0.291   2.164   2.666 -0.9677  0.3400 -1.9294
  275DMF     H3 3785   0.180   2.285   2.634  2.7288  1.3232 -1.7835
  275DMF     H4 3786   0.464   2.365   2.868 -1.6628 -2.0499  0.1280
  275DMF     H5 3787   0.310   2.465   2.861  0.6593  2.1243  0.6020
  275DMF     H6 3788   0.468   2.514   2.782  1.1224  0.5808  1.5514
  275DMF     H7 3789   0.479   2.483   2.579  1.5542 -1.2603 -1.5752
  276DMF     C1 3790   0.977   0.602   3.093 -0.3012  0.1882  0.1280
  276DMF     N1 3791   0.981   0.463   3.093  0.0114  0.9544 -0.6215
  276DMF     C2 3792   1.095   0.396   3.045 -0.1748  0.6364 -0.0040
  276DMF     C3 3793   0.869   0.383   3.130 -0.6576  0.4384  0.3110
  276DMF     O1 3794   0.756   0.431   3.144 -0.2760 -0.2987  0.6715
  276DMF     H1 3795   1.068   0.650   3.053  0.0508 -0.2003  0.4576
  276DMF     H2 3796   0.968   0.636   3.197 -0.1943 -0.2341  0.2736
  276DMF     H3 3797   0.893   0.650   3.042  0.1987 -0.3020 -1.1805
  276DMF     H4 3798   1.119   0.303   3.097 -0.1857 -0.4944 -1.9519
  276DMF     H5 3799   1.177   0.469   3.045 -1.5513  2.2157  1.4934
  276DMF     H6 3800   1.081   0.371   2.939 -0.2335  0.4417  0.0492
  276DMF     H7 3801   0.893   0.276   3.124 -0.7985  0.5005 -1.5075
  277DMF     C1 3802   2.984   1.224   2.974 -0.0141 -0.0403  0.2934
  277DMF     N1 3803   2.962   1.249   2.830  0.5002  0.0404 -0.2361
  277DMF     C2 3804   3.035   1.351   2.761 -0.3034 -0.3078  0.2911
  277DMF     C3 3805   2.885   1.161   2.756  0.7678  0.1014  0.6808
  277DMF     O1 3806   2.810   1.075   2.808 -0.2795 -0.1484  0.3249
  277DMF     H1 3807   3.089   1.252   2.993 -0.3318  0.9486  0.6560
  277DMF     H2 3808   2.975   1.119   3.004  0.1130  0.0155  0.5230
  277DMF     H3 3809   2.923   1.299   3.026 -0.5558 -0.0937 -0.2599
  277DMF     H4 3810   2.973   1.424   2.707  0.3166  0.4200  0.5452
  277DMF     H5 3811   3.124   1.321   2.703  0.5626  0.4205  1.2232
  277DMF     H6 3812   3.073   1.418   2.839 -1.4822 -0.1450  0.7249
  277DMF     H7 3813   2.895   1.173   2.647  1.3065  1.5159  0.8788
  278DMF     C1 3814   0.282   3.071   3.435  0.2859 -0.3516 -0.6845
  278DMF     N1 3815   0.274   3.015   3.299  0.2536 -0.0040  0.7511
  278DMF     C2 3816   0.390   3.039   3.208 -0.1310 -0.1400  0.5903
  278DMF     C3 3817   0.157   2.970   3.252  0.6124 -0.4157 -0.3340
  278DMF     O1 3818   0.063   2.949   3.325 -0.5954 -0.0518  0.0295
  278DMF     H1 3819   0.303   2.990   3.507 -0.3407 -1.2545 -1.5112
  278DMF     H2 3820   0.190   3.121   3.467  1.9311  0.6355  2.7451
  278DMF     H3 3821   0.365   3.142   3.437 -0.9240  1.0760  0.2318
  278DMF     H4 3822   0.369   3.106   3.123 -0.3632  0.0077  0.7637
  278DMF     H5 3823   0.439   2.949   3.169 -1.0999 -1.0486  1.4163
  278DMF     H6 3824   0.476   3.083   3.259  1.1759 -0.6959 -1.0935
  278DMF     H7 3825   0.148   2.944   3.145  1.8667  1.0668 -0.8185
  279DMF     C1 3826   2.355   3.091   3.094  0.3642 -0.1226  0.6641
  279DMF     N1 3827   2.216   3.059   3.050 -0.2942  0.2134  0.6381
  279DMF     C2 3828   2.202   2.986   2.923  0.0529 -0.0593 -0.5810
  279DMF     C3 3829   2.116   3.048   3.149 -0.0190 -0.2049 -0.1124
  279DMF     O1 3830   2.129   3.080   3.267  0.5056 -0.1124 -0.0309
  279DMF     H1 3831   2.415   3.001   3.112  0.2379 -0.6386 -1.3544
  279DMF     H2 3832   2.354   3.151   3.186  0.3766 -1.7516  1.7563
  279DMF     H3 3833   2.402   3.145   3.011  0.0635 -1.1087 -0.1548
  279DMF     H4 3834   2.136   2.905   2.957 -0.5832  0.3793 -0.7681
  279DMF     H5 3835   2.294   2.942   2.883  0.3452  1.1235 -1.2211
  279DMF     H6 3836   2.143   3.035   2.845 -0.6229  1.3506  0.7843
  279DMF     H7 3837   2.022   3.008   3.105 -0.2317  1.7197 -1.4908
  280DMF     C1 3838   1.950   2.691   2.715 -0.6386  0.4054  0.0180
  280DMF     N1 3839   2.055   2.670   2.621 -0.1250  0.0267  0.2045
  280DMF     C2 3840   2.060   2.537   2.551 -0.2292  0.3057  0.2811
  280DMF     C3 3841   2.134   2.780   2.582  0.4386  0.0829  0.1424
  280DMF     O1 3842   2.098   2.891   2.613  0.0990 -0.3994 -0.3625
  280DMF     H1 3843   1.866   2.745   2.669 -1.0351 -0.3329 -0.1421
  280DMF     H2 3844   1.965   2.750   2.806  0.5993  1.0012 -0.5663
  280DMF     H3 3845   1.918   2.597   2.762 -2.5758  0.3472 -1.3300
  280DMF     H4 3846   2.165   2.509   2.546 -0.4476 -0.8884  1.9018
  280DMF     H5 3847   2.029   2.563   2.449  0.2146 -0.0060  0.0665
  280DMF     H6 3848   2.002   2.454   2.592  0.2693  0.4482  1.2884
  280DMF     H7 3849   2.221   2.746   2.523  0.8701  1.7247 -0.1794
  281DMF     C1 3850   1.799   0.563   2.487 -0.7271 -0.3516  0.6284
  281DMF     N1 3851   1.924   0.541   2.562  0.3294 -0.2991  0.1674
  281DMF     C2 3852   1.993   0.413   2.569  0.2044 -0.0150 -0.8242
  281DMF     C3 3853   1.965   0.637   2.659 -0.0864  0.7037 -0.5604
  281DMF     O1 3854   1.906   0.740   2.677  0.1152  0.0542 -0.5499
  281DMF     H1 3855   1.807   0.534   2.381  1.1024  0.2746  0.5859
  281DMF     H2 3856   1.774   0.669   2.493  0.3751 -0.1726  2.1510
  281DMF     H3 3857   1.721   0.509   2.542  0.9003 -1.6950  1.6393
  281DMF     H4 3858   1.940   0.345   2.637 -3.2287  2.5648 -0.7481
  281DMF     H5 3859   2.095   0.434   2.603  0.2275 -2.7256  0.9606
  281DMF     H6 3860   1.988   0.364   2.471  1.6444 -0.5713 -0.6239
  281DMF     H7 3861   2.054   0.606   2.718 -0.4186  2.2443  0.7831
  282DMF     C1 3862   3.121   2.196   2.928 -0.2038 -0.5480 -0.7118
  282DMF     N1 3863   3.112   2.219   2.783  0.2223  0.6039  0.0605
  282DMF     C2 3864   2.978   2.265   2.735 -0.8832  0.2417 -0.0777
  282DMF     C3 3865   3.201   2.155   2.694  0.1991  0.0377  0.4605
  282DMF     O1 3866   3.301   2.095   2.727  0.0298 -0.4192  0.3773
  282DMF     H1 3867   3.025   2.157   2.964  0.6902 -1.5362  0.6183
  282DMF     H2 3868   3.126   2.290   2.985 -0.5369 -1.4239  0.7985
  282DMF     H3 3869   3.200   2.128   2.962 -1.5651 -1.2713  1.0524
  282DMF     H4 3870   2.984   2.350   2.666  1.2266  0.8023  0.7689
  282DMF     H5 3871   2.940   2.307   2.829 -0.2797 -0.6069  0.5502
  282DMF     H6 3872   2.907   2.190   2.698  1.2960 -2.5012  1.1718
  282DMF     H7 3873   3.165   2.166   2.591  2.6947  1.9660 -0.2765
  283DMF     C1 3874   0.458   0.842   2.317 -0.1101  0.2049  0.2231
  283DMF     N1 3875   0.329   0.815   2.243 -1.0253  0.5411  0.2940
  283DMF     C2 3876   0.237   0.931   2.231 -0.1833 -0.1172  0.7165
  283DMF     C3 3877   0.289   0.686   2.204  0.1962 -0.1025  0.2072
  283DMF     O1 3878   0.353   0.585   2.215 -0.1615 -0.4700  0.2119
  283DMF     H1 3879   0.512   0.921   2.263 -1.4446  0.7187 -0.4135
  283DMF     H2 3880   0.518   0.751   2.326  0.5170  0.7206  1.3651
  283DMF     H3 3881   0.433   0.883   2.416  0.6056  0.2762  0.3738
  283DMF     H4 3882   0.293   1.017   2.192  1.0943 -1.6284 -0.8333
  283DMF     H5 3883   0.198   0.970   2.326 -1.7792  1.7255 -0.6586
  283DMF     H6 3884   0.158   0.909   2.159 -0.1681 -0.4672  0.8063
  283DMF     H7 3885   0.192   0.695   2.152 -0.0914 -2.9221  0.1386
  284DMF     C1 3886   0.900   3.311   3.762 -0.1982  0.1975  0.1587
  284DMF     N1 3887   0.805   3.205   3.764 -0.3409  0.3503  0.0940
  284DMF     C2 3888   0.728   3.183   3.634  0.3736 -0.2887 -0.0117
  284DMF     C3 3889   0.770   3.131   3.884 -0.1433 -0.0595  0.1420
  284DMF     O1 3890   0.826   3.147   3.989 -0.2378 -0.1310 -0.0780
  284DMF     H1 3891   0.864   3.395   3.822  1.5668  0.5257  0.7753
  284DMF     H2 3892   0.932   3.354   3.666 -1.6733  1.1201  0.0609
  284DMF     H3 3893   0.988   3.272   3.814 -1.1860 -0.8045  1.1109
  284DMF     H4 3894   0.639   3.246   3.625  1.5447  1.3766 -0.2562
  284DMF     H5 3895   0.705   3.079   3.607 -0.6754 -0.3589  1.1060
  284DMF     H6 3896   0.795   3.207   3.551 -1.2060 -1.5784 -1.6939
  284DMF     H7 3897   0.695   3.053   3.861 -0.7261  0.8559 -1.1094
  285DMF     C1 3898   1.659   2.591   2.560  0.0789  0.0458  0.1982
  285DMF     N1 3899   1.554   2.490   2.594  0.2566 -0.3361 -0.1915
  285DMF     C2 3900   1.599   2.353   2.640  0.2296 -0.0889 -0.3587
  285DMF     C3 3901   1.420   2.523   2.610  0.7640 -0.1985 -0.3453
  285DMF     O1 3902   1.377   2.624   2.556 -0.0321 -0.0018 -0.4220
  285DMF     H1 3903   1.757   2.547   2.583  0.3981  1.4098  1.5728
  285DMF     H2 3904   1.649   2.694   2.598  1.3381  0.2114  0.1053
  285DMF     H3 3905   1.667   2.608   2.452 -1.4721  0.6542  0.1612
  285DMF     H4 3906   1.704   2.333   2.614  0.3681  0.4955 -0.2601
  285DMF     H5 3907   1.539   2.279   2.587 -0.7184 -1.3123  2.3356
  285DMF     H6 3908   1.588   2.344   2.749  0.8764 -0.1443 -0.2931
  285DMF     H7 3909   1.358   2.446   2.659 -1.9921  1.6276 -0.8535
  286DMF     C1 3910   3.383   1.890   0.287 -0.1877  0.4533 -0.7119
  286DMF     N1 3911   3.466   2.010   0.252  0.2770  0.3159  0.1313
  286DMF     C2 3912   3.444   2.142   0.322  0.0618 -0.8070 -0.5123
  286DMF     C3 3913   3.558   1.993   0.145 -0.8403 -0.2257 -0.3229
  286DMF     O1 3914   3.567   1.896   0.075 -0.2139 -0.7558 -0.4445
  286DMF     H1 3915   3.294   1.910   0.347  1.2645  1.6238  1.1413
  286DMF     H2 3916   3.454   1.822   0.337 -0.9158  0.3106  0.1404
  286DMF     H3 3917   3.358   1.849   0.189  0.5828  1.3443 -1.2925
  286DMF     H4 3918   3.341   2.145   0.360  0.6301 -1.4485  1.1291
  286DMF     H5 3919   3.453   2.222   0.248 -1.3603  0.9975  1.2192
  286DMF     H6 3920   3.518   2.159   0.401 -0.0926 -1.2450 -0.2698
  286DMF     H7 3921   3.621   2.080   0.118 -0.7884 -0.1241  0.1190
  287DMF     C1 3922   0.504   0.781   3.527 -0.1473  0.1157 -0.2517
  287DMF     N1 3923   0.603   0.801   3.640  0.3539  0.4130 -0.0078
  287DMF     C2 3924   0.572   0.904   3.739 -0.5274  0.3800 -0.0771
  287DMF     C3 3925   0.694   0.699   3.676  0.1095 -0.2384 -0.1400
  287DMF     O1 3926   0.689   0.588   3.628 -0.2557 -0.2211 -0.2987
  287DMF     H1 3927   0.551   0.722   3.448  1.5860  0.2822  0.6355
  287DMF     H2 3928   0.480   0.880   3.488 -0.2262  0.4159  0.5441
  287DMF     H3 3929   0.423   0.727   3.577 -0.0771  1.2801  1.1660
  287DMF     H4 3930   0.656   0.887   3.808 -1.1593  0.3932  0.6929
  287DMF     H5 3931   0.475   0.885   3.786 -0.3612  1.6014  0.7745
  287DMF     H6 3932   0.578   1.006   3.700  1.3109  0.2790 -0.0972
  287DMF     H7 3933   0.766   0.725   3.756  2.4794  1.3470 -2.6783
  288DMF     C1 3934   0.368   2.661   2.273  0.2174  0.0549 -0.1526
  288DMF     N1 3935   0.235   2.677   2.249 -0.4581  0.6202 -0.0933
  288DMF     C2 3936   0.138   2.570   2.255  0.0748  0.6430  0.3686
  288DMF     C3 3937   0.190   2.802   2.212  0.2354  0.5751 -1.1229
  288DMF     O1 3938   0.261   2.903   2.210  0.6057  0.0432  0.0878
  288DMF     H1 3939   0.381   2.562   2.319  0.7945 -0.0764 -0.6044
  288DMF     H2 3940   0.413   2.733   2.343  1.0293 -1.9395  1.4484
  288DMF     H3 3941   0.420   2.671   2.178  1.4418 -1.8989  0.2794
  288DMF     H4 3942   0.042   2.600   2.211  1.1501  0.9563 -1.8296
  288DMF     H5 3943   0.127   2.550   2.362 -2.1214  0.4518  0.1229
  288DMF     H6 3944   0.181   2.485   2.201 -0.8203  1.2881 -1.4191
  288DMF     H7 3945   0.082   2.802   2.187  0.2070  0.2052 -1.0068
  289DMF     C1 3946   2.062   3.193   0.216 -0.3543  0.8940  0.3143
  289DMF     N1 3947   2.163   3.289   0.163 -0.0403  0.3731 -0.5600
  289DMF     C2 3948   2.304   3.278   0.212 -0.0644 -0.3854 -0.4866
  289DMF     C3 3949   2.143   3.348   0.035 -0.3545  0.0504  0.5403
  289DMF     O1 3950   2.035   3.351  -0.017 -1.0220 -0.2505  0.8902
  289DMF     H1 3951   2.084   3.094   0.174  0.0354  1.9877 -2.1440
  289DMF     H2 3952   1.966   3.242   0.199 -0.7588 -0.0852 -0.2492
  289DMF     H3 3953   2.078   3.190   0.325  0.0643  0.5942  0.2479
  289DMF     H4 3954   2.346   3.374   0.243  0.5837  0.3319 -3.4382
  289DMF     H5 3955   2.369   3.242   0.131 -0.7123 -0.8484 -0.8073
  289DMF     H6 3956   2.308   3.211   0.298 -0.2183  1.1094  0.6959
  289DMF     H7 3957   2.231   3.396  -0.010 -1.2633  0.8118 -0.4520
  290DMF     C1 3958   0.593   0.150   3.061 -0.3705 -0.3182 -0.3427
  290DMF     N1 3959   0.488   0.094   2.983 -0.2404 -0.0642 -0.1346
  290DMF     C2 3960   0.381   0.184   2.933 -0.3945  0.4350 -0.0804
  290DMF     C3 3961   0.493  -0.040   2.954 -0.4848  0.3219  0.6088
  290DMF     O1 3962   0.576  -0.118   2.995 -0.1668 -0.1179  0.5119
  290DMF     H1 3963   0.674   0.183   2.994  0.0392  2.6050  1.4653
  290DMF     H2 3964   0.639   0.086   3.137 -2.5764  0.4885  1.7183
  290DMF     H3 3965   0.558   0.242   3.110  0.4964 -0.2294  0.1379
  290DMF     H4 3966   0.281   0.141   2.951  0.6236 -2.7320 -1.6643
  290DMF     H5 3967   0.388   0.202   2.825 -0.0495 -0.7376 -0.2642
  290DMF     H6 3968   0.380   0.277   2.990 -2.9647 -0.3670  1.2876
  290DMF     H7 3969   0.421  -0.079   2.881 -0.9347  0.2432  1.0947
  291DMF     C1 3970   3.076   1.066   3.343  0.3267  0.5296 -0.0524
  291DMF     N1 3971   3.223   1.051   3.371 -0.1689 -0.1889 -0.1887
  291DMF     C2 3972   3.283   0.919   3.356 -0.0361  0.0909 -0.2897
  291DMF     C3 3973   3.284   1.138   3.462 -0.3115 -0.4532  0.8309
  291DMF     O1 3974   3.236   1.247   3.495  0.3649 -0.1018  0.0928
  291DMF     H1 3975   3.021   1.110   3.426  0.7338  0.4030  0.2860
  291DMF     H2 3976   3.028   0.967   3.336 -1.2786  1.2749  0.2314
  291DMF     H3 3977   3.065   1.117   3.246 -0.1456  1.5862  0.5533
  291DMF     H4 3978   3.273   0.864   3.450  1.1766  1.0177  0.4014
  291DMF     H5 3979   3.387   0.920   3.321 -0.1801  0.6804 -0.7045
  291DMF     H6 3980   3.223   0.861   3.286 -1.5715  1.3405 -0.0465
  291DMF     H7 3981   3.376   1.098   3.509  2.8189  2.6503 -2.2933
  292DMF     C1 3982   2.506   1.611   0.042 -0.0888  0.8085  0.4268
  292DMF     N1 3983   2.440   1.667  -0.078 -0.0640 -0.4409 -0.2910
  292DMF     C2 3984   2.415   1.808  -0.089 -0.7024  0.0689 -0.6341
  292DMF     C3 3985   2.409   1.587  -0.187 -0.0023  0.0684 -0.4533
  292DMF     O1 3986   2.433   1.468  -0.188  0.1212  0.0960  0.0172
  292DMF     H1 3987   2.560   1.690   0.095  2.3437 -0.7256  0.3301
  292DMF     H2 3988   2.570   1.523   0.030  0.2251  0.8542  1.7222
  292DMF     H3 3989   2.424   1.577   0.107  2.1021 -3.3073  1.1923
  292DMF     H4 3990   2.507   1.863  -0.114 -0.1657 -1.0554 -1.1641
  292DMF     H5 3991   2.369   1.837   0.006 -1.9550 -0.5977 -1.0316
  292DMF     H6 3992   2.338   1.831  -0.164  0.6875  0.0409 -2.0994
  292DMF     H7 3993   2.349   1.636  -0.266 -0.0032  0.4934 -0.1852
  293DMF     C1 3994   0.126   2.438   3.548  0.4038  0.5908 -0.3403
  293DMF     N1 3995   0.117   2.573   3.488 -0.2647  0.1674 -0.3689
  293DMF     C2 3996   0.235   2.661   3.496  0.4724 -0.3428  0.0700
  293DMF     C3 3997  -0.007   2.624   3.444  0.0289  0.0339  0.5394
  293DMF     O1 3998  -0.114   2.565   3.455  0.1550  0.1284 -0.4183
  293DMF     H1 3999   0.222   2.400   3.513  0.5283  1.2351 -0.7033
  293DMF     H2 4000   0.045   2.383   3.499  2.2214 -0.7862 -1.8414
  293DMF     H3 4001   0.118   2.444   3.657 -1.6790 -1.7053 -0.3358
  293DMF     H4 4002   0.195   2.762   3.510 -1.1262 -0.3815 -3.7853
  293DMF     H5 4003   0.282   2.660   3.397  2.9901 -1.3466  1.2145
  293DMF     H6 4004   0.294   2.632   3.584 -2.1903  0.8413  2.3434
  293DMF     H7 4005   0.004   2.718   3.386  0.9567 -0.5141 -0.1893
  294DMF     C1 4006   3.156   1.366   0.413  0.3067 -0.3346  0.7425
  294DMF     N1 4007   3.257   1.360   0.304 -0.0150 -0.1845 -0.3662
  294DMF     C2 4008   3.317   1.486   0.262  0.1430  0.3251  0.3097
  294DMF     C3 4009   3.309   1.238   0.259 -0.1664 -0.5717 -0.6422
  294DMF     O1 4010   3.271   1.129   0.306  0.4256 -0.3662  0.4487
  294DMF     H1 4011   3.102   1.461   0.399  3.0885  1.0893 -0.8310
  294DMF     H2 4012   3.204   1.362   0.511  3.2148  0.5407 -0.5911
  294DMF     H3 4013   3.091   1.278   0.414  1.2516 -1.0293  0.8776
  294DMF     H4 4014   3.397   1.507   0.335  0.3489  0.2993  0.0920
  294DMF     H5 4015   3.244   1.568   0.259  0.2032  0.3267 -2.1947
  294DMF     H6 4016   3.369   1.479   0.166  1.1863  0.7774  0.8289
  294DMF     H7 4017   3.389   1.244   0.182  1.9829 -2.6717  1.3522
  295DMF     C1 4018   0.137   0.822   2.679 -0.6884  0.6801  0.3358
  295DMF     N1 4019   0.228   0.718   2.625 -0.1640  0.6610 -0.0963
  295DMF     C2 4020   0.343   0.676   2.701  0.5180 -1.1684  0.3238
  295DMF     C3 4021   0.195   0.658   2.503 -0.1770 -0.7415 -1.4582
  295DMF     O1 4022   0.097   0.685   2.440  0.4014  0.0116  0.1916
  295DMF     H1 4023   0.167   0.824   2.785  1.5296 -0.3222 -0.2552
  295DMF     H2 4024   0.033   0.787   2.684 -0.3226 -0.5749 -0.8182
  295DMF     H3 4025   0.156   0.918   2.629  0.2835  0.8487  1.0032
  295DMF     H4 4026   0.386   0.593   2.643 -0.5428 -2.3936  1.2771
  295DMF     H5 4027   0.308   0.623   2.790 -2.3599 -1.0995 -0.7075
  295DMF     H6 4028   0.420   0.754   2.700  0.5814 -1.2196  1.2181
  295DMF     H7 4029   0.268   0.582   2.470  3.6947  2.3688 -0.4937
  296DMF     C1 4030   2.909   3.293   3.772  0.1611 -0.6051  0.2840
  296DMF     N1 4031   2.777   3.259   3.721  0.3770 -0.3572  0.0587
  296DMF     C2 4032   2.723   3.337   3.607 -0.0114  0.4666 -0.5135
  296DMF     C3 4033   2.691   3.166   3.786  0.3163  0.3907 -0.3177
  296DMF     O1 4034   2.716   3.111   3.894  0.0832  0.0465 -0.0974
  296DMF     H1 4035   2.953   3.365   3.703 -1.5296  0.0671 -0.1218
  296DMF     H2 4036   2.974   3.205   3.764 -0.9812 -1.6684  2.1538
  296DMF     H3 4037   2.914   3.331   3.875  1.8966 -0.1658  0.0514
  296DMF     H4 4038   2.748   3.442   3.624 -1.7380  0.3334  3.3267
  296DMF     H5 4039   2.614   3.327   3.594 -0.1382  1.9760 -0.7629
  296DMF     H6 4040   2.782   3.313   3.518  3.2598  1.5511  1.2814
  296DMF     H7 4041   2.591   3.153   3.740 -0.6135  1.0418  1.4833
  297DMF     C1 4042   2.077   0.004   2.240  0.1054  0.0063  0.4118
  297DMF     N1 4043   2.209  -0.054   2.268  0.0807 -0.0057 -0.1923
  297DMF     C2 4044   2.318   0.035   2.297  0.2353  0.8981 -0.5898
  297DMF     C3 4045   2.223  -0.194   2.270  0.4545  0.1318  0.1548
  297DMF     O1 4046   2.127  -0.268   2.253 -0.4766 -0.4222 -0.3656
  297DMF     H1 4047   2.086   0.099   2.186  2.8011 -0.4095  0.1027
  297DMF     H2 4048   2.029   0.034   2.335  2.2169  2.3006  0.8135
  297DMF     H3 4049   2.014  -0.060   2.177  1.4725 -0.3639 -0.5768
  297DMF     H4 4050   2.372   0.060   2.205  0.7945 -1.6297 -0.9802
  297DMF     H5 4051   2.389  -0.020   2.359 -0.5237  0.8010  0.2088
  297DMF     H6 4052   2.280   0.125   2.348 -4.1120 -1.5827  0.8455
  297DMF     H7 4053   2.328  -0.225   2.284 -0.3262 -2.3753  0.7122
  298DMF     C1 4054   0.787   0.644   2.249  0.2619  0.2190 -0.4152
  298DMF     N1 4055   0.870   0.757   2.288 -0.1867 -0.6808  0.0315
  298DMF     C2 4056   0.835   0.897   2.249  0.1450  0.1742  0.0138
  298DMF     C3 4057   0.984   0.743   2.363  0.4597  0.5948  0.3551
  298DMF     O1 4058   1.022   0.632   2.402  0.3131 -0.7228  0.1372
  298DMF     H1 4059   0.727   0.597   2.328 -1.4627 -1.3643 -2.6093
  298DMF     H2 4060   0.849   0.565   2.205  1.1006  0.2524  0.6633
  298DMF     H3 4061   0.706   0.659   2.177  0.2310 -2.3454 -0.9669
  298DMF     H4 4062   0.869   0.967   2.327 -0.3021 -0.9589  1.2416
  298DMF     H5 4063   0.728   0.916   2.239 -0.0445 -1.1903 -0.7233
  298DMF     H6 4064   0.888   0.930   2.158  1.1169  0.1000  0.5495
  298DMF     H7 4065   1.027   0.840   2.394  0.9978 -0.6566  3.7879
  299DMF     C1 4066   2.814   0.493   3.453 -0.4840  0.5050 -0.0229
  299DMF     N1 4067   2.808   0.561   3.328 -0.1402 -0.1182 -0.9493
  299DMF     C2 4068   2.698   0.540   3.231 -0.0210 -0.5917  0.3581
  299DMF     C3 4069   2.919   0.628   3.283  0.4724 -0.2679  0.6876
  299DMF     O1 4070   3.028   0.637   3.340 -0.2712  0.1767  0.2820
  299DMF     H1 4071   2.900   0.426   3.463 -0.3928  0.8026  1.2670
  299DMF     H2 4072   2.726   0.427   3.444 -0.2761  0.1873  0.2690
  299DMF     H3 4073   2.802   0.566   3.534  1.2433  0.3148  0.4135
  299DMF     H4 4074   2.740   0.518   3.133 -1.3849  0.0332 -0.3774
  299DMF     H5 4075   2.638   0.632   3.227 -0.1437 -0.5864  1.8662
  299DMF     H6 4076   2.629   0.460   3.263 -1.4518  0.3013 -0.4406
  299DMF     H7 4077   2.906   0.665   3.180 -1.8078 -0.6379  0.8179
  300DMF     C1 4078   0.832   1.776   2.220  0.6257 -0.6677 -0.2637
  300DMF     N1 4079   0.944   1.751   2.312 -0.1097  0.7826 -0.5913
  300DMF     C2 4080   1.079   1.764   2.252 -0.1266  0.2113  0.4865
  300DMF     C3 4081   0.926   1.707   2.447 -0.0797 -1.2203 -0.3729
  300DMF     O1 4082   0.815   1.683   2.492  0.2013  0.4699  0.6784
  300DMF     H1 4083   0.848   1.869   2.165 -1.5335 -0.1462 -0.0542
  300DMF     H2 4084   0.739   1.778   2.279  0.8275  3.5123  0.0211
  300DMF     H3 4085   0.823   1.694   2.148 -0.1048 -0.6279 -0.2305
  300DMF     H4 4086   1.154   1.756   2.332  0.6441  2.0687 -0.0396
  300DMF     H5 4087   1.097   1.860   2.203  0.0287  1.0727  2.1734
  300DMF     H6 4088   1.094   1.677   2.187 -1.3148  0.2244  0.1860
  300DMF     H7 4089   1.017   1.696   2.508  1.0827  0.1395 -1.8289
  301DMF     C1 4090   2.972   3.168   3.304  0.5263 -0.4309  0.2221
  301DMF     N1 4091   3.081   3.201   3.392 -0.6433 -0.4135 -0.2469
  301DMF     C2 4092   3.185   3.104   3.417  0.5554  0.1051 -0.6984
  301DMF     C3 4093   3.105   3.323   3.447  0.6381 -0.1021  0.1006
  301DMF     O1 4094   3.028   3.421   3.442  0.1910  0.0828 -0.2852
  301DMF     H1 4095   2.985   3.193   3.198  0.5555  1.3168  0.6209
  301DMF     H2 4096   2.895   3.232   3.350  0.1877 -0.6714 -0.0172
  301DMF     H3 4097   2.942   3.064   3.321 -0.2507 -0.1592  0.5308
  301DMF     H4 4098   3.209   3.115   3.523  2.0869  0.8801 -1.1194
  301DMF     H5 4099   3.272   3.125   3.353  0.9309  2.5711  0.5518
  301DMF     H6 4100   3.148   3.001   3.405 -0.4181  0.1494  1.7194
  301DMF     H7 4101   3.198   3.323   3.506  0.5848  0.6521  0.1855
  302DMF     C1 4102   0.286   0.223   2.437 -0.3570 -0.4154 -0.3648
  302DMF     N1 4103   0.394   0.285   2.364  0.0139  0.3166  0.6378
  302DMF     C2 4104   0.411   0.266   2.219  0.0349  0.5837 -0.3905
  302DMF     C3 4105   0.479   0.371   2.427 -0.0277  0.0756 -0.1409
  302DMF     O1 4106   0.476   0.398   2.546  0.1897  0.1674 -0.2568
  302DMF     H1 4107   0.195   0.277   2.406 -0.4023 -0.5446 -0.4561
  302DMF     H2 4108   0.296   0.238   2.545  2.0697 -0.0030 -0.6064
  302DMF     H3 4109   0.274   0.120   2.401  0.1407 -0.6989  0.2725
  302DMF     H4 4110   0.356   0.339   2.159  0.3672  1.0867 -0.0911
  302DMF     H5 4111   0.367   0.168   2.194  0.0347  0.3349  0.5546
  302DMF     H6 4112   0.517   0.274   2.192  0.5131 -4.0576 -0.2346
  302DMF     H7 4113   0.543   0.419   2.352 -0.4403 -2.9256 -2.5275
  303DMF     C1 4114   0.666   0.067   3.463 -0.0111 -0.0152 -1.0056
  303DMF     N1 4115   0.649   0.204   3.514 -0.5357 -0.4031 -0.5048
  303DMF     C2 4116   0.574   0.302   3.423 -0.3258 -1.1084 -0.1600
  303DMF     C3 4117   0.666   0.239   3.647 -0.6992  0.2325 -0.4423
  303DMF     O1 4118   0.729   0.164   3.724  0.3346 -0.2742 -0.3260
  303DMF     H1 4119   0.738   0.005   3.519 -0.8812  0.3833  0.5990
  303DMF     H2 4120   0.685   0.070   3.355 -0.0898 -1.6457 -1.0719
  303DMF     H3 4121   0.571   0.014   3.476  0.2352 -0.5448 -1.3296
  303DMF     H4 4122   0.630   0.321   3.330  0.7479  2.2525  1.0822
  303DMF     H5 4123   0.549   0.400   3.465  1.2676  0.3839 -2.5346
  303DMF     H6 4124   0.480   0.254   3.393 -0.5533 -1.1107  0.5524
  303DMF     H7 4125   0.634   0.344   3.664 -1.3025 -0.3814  2.6038
  304DMF     C1 4126   1.938   2.503   3.754 -0.6286 -0.0759 -0.2540
  304DMF     N1 4127   1.871   2.545   3.882  0.1223  0.3752 -0.1947
  304DMF     C2 4128   1.833   2.442   3.980  0.1838 -0.4932  0.4461
  304DMF     C3 4129   1.882   2.672   3.935  0.6134  0.2733  0.0991
  304DMF     O1 4130   1.925   2.769   3.874 -0.2107 -0.1375 -0.1106
  304DMF     H1 4131   1.997   2.585   3.711 -0.6455 -1.2723 -2.6291
  304DMF     H2 4132   1.863   2.480   3.676 -0.8344  2.0248 -0.7392
  304DMF     H3 4133   2.006   2.420   3.773  0.0836  0.6320  0.3030
  304DMF     H4 4134   1.916   2.388   4.028  1.5280  1.5098  0.4239
  304DMF     H5 4135   1.774   2.361   3.935 -2.3901 -0.0422  2.8054
  304DMF     H6 4136   1.767   2.477   4.061 -0.0460 -1.7531  0.8178
  304DMF     H7 4137   1.853   2.683   4.041  1.8108  0.9881  0.3525
  305DMF     C1 4138   0.657   0.547   2.832 -0.1197  0.3758  0.5306
  305DMF     N1 4139   0.727   0.656   2.766  0.1630 -0.1042  0.9454
  305DMF     C2 4140   0.799   0.628   2.637 -0.4811  0.4544  0.2871
  305DMF     C3 4141   0.717   0.787   2.809 -0.0838 -0.0061 -0.2651
  305DMF     O1 4142   0.643   0.814   2.897  0.1062 -0.1489 -0.2668
  305DMF     H1 4143   0.579   0.500   2.770  0.0337  0.0698  0.5658
  305DMF     H2 4144   0.605   0.582   2.922 -0.4738 -0.8396  0.8093
  305DMF     H3 4145   0.724   0.463   2.854 -1.8874 -0.5101  2.7242
  305DMF     H4 4146   0.812   0.722   2.583 -0.3252  0.4907  0.3866
  305DMF     H5 4147   0.746   0.552   2.578  1.5551  2.1099 -3.8098
  305DMF     H6 4148   0.899   0.595   2.667 -0.2733 -1.4334 -2.3040
  305DMF     H7 4149   0.779   0.862   2.757  0.7070 -0.6651 -0.2941
  306DMF     C1 4150   0.512   1.139   2.903 -0.4314  0.0930  0.4106
  306DMF     N1 4151   0.561   1.133   2.762 -0.2141 -0.2228  0.3898
  306DMF     C2 4152   0.466   1.138   2.651  0.4598 -0.3513 -0.6732
  306DMF     C3 4153   0.702   1.116   2.743  0.7109  0.5216  0.3429
  306DMF     O1 4154   0.779   1.111   2.838  0.4142  0.3295 -0.4475
  306DMF     H1 4155   0.406   1.110   2.905  0.0957 -1.7903  2.6215
  306DMF     H2 4156   0.541   1.232   2.953  0.2109 -0.3770  0.9226
  306DMF     H3 4157   0.564   1.057   2.953  0.7971  1.7920  1.9705
  306DMF     H4 4158   0.380   1.070   2.659  1.8508 -2.3278 -1.8347
  306DMF     H5 4159   0.510   1.105   2.555  1.0594 -0.3758 -0.3880
  306DMF     H6 4160   0.450   1.244   2.627  1.5900  0.2655  1.2299
  306DMF     H7 4161   0.735   1.120   2.638  0.8662 -2.1537  0.2455
  307DMF     C1 4162   3.026   0.331   3.124 -0.1504  0.2616 -0.3528
  307DMF     N1 4163   2.997   0.193   3.068 -0.1433  0.1094 -0.6179
  307DMF     C2 4164   3.029   0.078   3.145 -0.2490 -0.0257  0.0318
  307DMF     C3 4165   2.976   0.179   2.925 -0.8760 -0.0300  0.3816
  307DMF     O1 4166   2.943   0.272   2.854 -0.4693  0.2890 -0.1880
  307DMF     H1 4167   2.944   0.346   3.196  1.0847  0.8797  0.9418
  307DMF     H2 4168   3.031   0.399   3.038 -0.3782  0.8047  0.0586
  307DMF     H3 4169   3.117   0.331   3.185 -0.1787 -0.4041 -0.3082
  307DMF     H4 4170   3.033   0.111   3.249 -1.1973 -0.5354  0.2377
  307DMF     H5 4171   3.131   0.045   3.124 -0.1783  0.0813  0.2090
  307DMF     H6 4172   2.953   0.001   3.123 -2.2307  1.2477  2.2086
  307DMF     H7 4173   2.984   0.076   2.886  1.8137 -0.0782  0.9711
   3.40320   3.43847   3.80000
