DMF comparator n4
 4173
    1GR      C1    1   0.000   0.000   1.900  0.0000  0.0000  0.0000
    1GR      C2    2   0.142   0.000   1.900  0.0000  0.0000  0.0000
    1GR      C3    3   0.213   0.123   1.900  0.0000  0.0000  0.0000
    1GR      C4    4   0.354   0.123   1.900  0.0000  0.0000  0.0000
    1GR      C5    5   0.000   0.246   1.900  0.0000  0.0000  0.0000
    1GR      C6    6   0.142   0.246   1.900  0.0000  0.0000  0.0000
    1GR      C7    7   0.213   0.368   1.900  0.0000  0.0000  0.0000
    1GR      C8    8   0.354   0.368   1.900  0.0000  0.0000  0.0000
    1GR      C9    9   0.000   0.491   1.900  0.0000  0.0000  0.0000
    1GR     C10   10   0.142   0.491   1.900  0.0000  0.0000  0.0000
    1GR     C11   11   0.213   0.614   1.900  0.0000  0.0000  0.0000
    1GR     C12   12   0.354   0.614   1.900  0.0000  0.0000  0.0000
    1GR     C13   13   0.000   0.737   1.900  0.0000  0.0000  0.0000
    1GR     C14   14   0.142   0.737   1.900  0.0000  0.0000  0.0000
    1GR     C15   15   0.213   0.860   1.900  0.0000  0.0000  0.0000
    1GR     C16   16   0.354   0.860   1.900  0.0000  0.0000  0.0000
    1GR     C17   17   0.000   0.982   1.900  0.0000  0.0000  0.0000
    1GR     C18   18   0.142   0.982   1.900  0.0000  0.0000  0.0000
    1GR     C19   19   0.213   1.105   1.900  0.0000  0.0000  0.0000
    1GR     C20   20   0.354   1.105   1.900  0.0000  0.0000  0.0000
    1GR     C21   21   0.000   1.228   1.900  0.0000  0.0000  0.0000
    1GR     C22   22   0.142   1.228   1.900  0.0000  0.0000  0.0000
    1GR     C23   23   0.213   1.351   1.900  0.0000  0.0000  0.0000
    1GR     C24   24   0.354   1.351   1.900  0.0000  0.0000  0.0000
    1GR     C25   25   0.000   1.474   1.900  0.0000  0.0000  0.0000
    1GR     C26   26   0.142   1.474   1.900  0.0000  0.0000  0.0000
    1GR     C27   27   0.213   1.596   1.900  0.0000  0.0000  0.0000
    1GR     C28   28   0.354   1.596   1.900  0.0000  0.0000  0.0000
    1GR     C29   29   3.403   1.719   1.900  0.0000  0.0000  0.0000
    1GR     C30   30   0.142   1.719   1.900  0.0000  0.0000  0.0000
    1GR     C31   31   0.213   1.842   1.900  0.0000  0.0000  0.0000
    1GR     C32   32   0.354   1.842   1.900  0.0000  0.0000  0.0000
    1GR     C33   33   0.000   1.965   1.900  0.0000  0.0000  0.0000
    1GR     C34   34   0.142   1.965   1.900  0.0000  0.0000  0.0000
    1GR     C35   35   0.213   2.088   1.900  0.0000  0.0000  0.0000
    1GR     C36   36   0.354   2.088   1.900  0.0000  0.0000  0.0000
    1GR     C37   37   0.000   2.210   1.900  0.0000  0.0000  0.0000
    1GR     C38   38   0.142   2.210   1.900  0.0000  0.0000  0.0000
    1GR     C39   39   0.213   2.333   1.900  0.0000  0.0000  0.0000
    1GR     C40   40   0.354   2.333   1.900  0.0000  0.0000  0.0000
    1GR     C41   41   0.000   2.456   1.900  0.0000  0.0000  0.0000
    1GR     C42   42   0.142   2.456   1.900  0.0000  0.0000  0.0000
    1GR     C43   43   0.213   2.579   1.900  0.0000  0.0000  0.0000
    1GR     C44   44   0.354   2.579   1.900  0.0000  0.0000  0.0000
    1GR     C45   45   0.000   2.702   1.900  0.0000  0.0000  0.0000
    1GR     C46   46   0.142   2.702   1.900  0.0000  0.0000  0.0000
    1GR     C47   47   0.213   2.824   1.900  0.0000  0.0000  0.0000
    1GR     C48   48   0.354   2.824   1.900  0.0000  0.0000  0.0000
    1GR     C49   49   0.000   2.947   1.900  0.0000  0.0000  0.0000
    1GR     C50   50   0.142   2.947   1.900  0.0000  0.0000  0.0000
    1GR     C51   51   0.213   3.070   1.900  0.0000  0.0000  0.0000
    1GR     C52   52   0.354   3.070   1.900  0.0000  0.0000  0.0000
    1GR     C53   53   0.000   3.193   1.900  0.0000  0.0000  0.0000
    1GR     C54   54   0.142   3.193   1.900  0.0000  0.0000  0.0000
    1GR     C55   55   0.213   3.316   1.900  0.0000  0.0000  0.0000
    1GR     C56   56   0.354   3.316   1.900  0.0000  0.0000  0.0000
    1GR     C57   57   0.425   0.000   1.900  0.0000  0.0000  0.0000
    1GR     C58   58   0.567   0.000   1.900  0.0000  0.0000  0.0000
    1GR     C59   59   0.638   0.123   1.900  0.0000  0.0000  0.0000
    1GR     C60   60   0.780   0.123   1.900  0.0000  0.0000  0.0000
    1GR     C61   61   0.425   0.246   1.900  0.0000  0.0000  0.0000
    1GR     C62   62   0.567   0.246   1.900  0.0000  0.0000  0.0000
    1GR     C63   63   0.638   0.368   1.900  0.0000  0.0000  0.0000
    1GR     C64   64   0.780   0.368   1.900  0.0000  0.0000  0.0000
    1GR     C65   65   0.425   0.491   1.900  0.0000  0.0000  0.0000
    1GR     C66   66   0.567   0.491   1.900  0.0000  0.0000  0.0000
    1GR     C67   67   0.638   0.614   1.900  0.0000  0.0000  0.0000
    1GR     C68   68   0.780   0.614   1.900  0.0000  0.0000  0.0000
    1GR     C69   69   0.425   0.737   1.900  0.0000  0.0000  0.0000
    1GR     C70   70   0.567   0.737   1.900  0.0000  0.0000  0.0000
    1GR     C71   71   0.638   0.860   1.900  0.0000  0.0000  0.0000
    1GR     C72   72   0.780   0.860   1.900  0.0000  0.0000  0.0000
    1GR     C73   73   0.425   0.982   1.900  0.0000  0.0000  0.0000
    1GR     C74   74   0.567   0.982   1.900  0.0000  0.0000  0.0000
    1GR     C75   75   0.638   1.105   1.900  0.0000  0.0000  0.0000
    1GR     C76   76   0.780   1.105   1.900  0.0000  0.0000  0.0000
    1GR     C77   77   0.425   1.228   1.900  0.0000  0.0000  0.0000
    1GR     C78   78   0.567   1.228   1.900  0.0000  0.0000  0.0000
    1GR     C79   79   0.638   1.351   1.900  0.0000  0.0000  0.0000
    1GR     C80   80   0.780   1.351   1.900  0.0000  0.0000  0.0000
    1GR     C81   81   0.425   1.474   1.900  0.0000  0.0000  0.0000
    1GR     C82   82   0.567   1.474   1.900  0.0000  0.0000  0.0000
    1GR     C83   83   0.638   1.596   1.900  0.0000  0.0000  0.0000
    1GR     C84   84   0.780   1.596   1.900  0.0000  0.0000  0.0000
    1GR     C85   85   0.425   1.719   1.900  0.0000  0.0000  0.0000
    1GR     C86   86   0.567   1.719   1.900  0.0000  0.0000  0.0000
    1GR     C87   87   0.638   1.842   1.900  0.0000  0.0000  0.0000
    1GR     C88   88   0.780   1.842   1.900  0.0000  0.0000  0.0000
    1GR     C89   89   0.425   1.965   1.900  0.0000  0.0000  0.0000
    1GR     C90   90   0.567   1.965   1.900  0.0000  0.0000  0.0000
    1GR     C91   91   0.638   2.088   1.900  0.0000  0.0000  0.0000
    1GR     C92   92   0.780   2.088   1.900  0.0000  0.0000  0.0000
    1GR     C93   93   0.425   2.210   1.900  0.0000  0.0000  0.0000
    1GR     C94   94   0.567   2.210   1.900  0.0000  0.0000  0.0000
    1GR     C95   95   0.638   2.333   1.900  0.0000  0.0000  0.0000
    1GR     C96   96   0.780   2.333   1.900  0.0000  0.0000  0.0000
    1GR     C97   97   0.425   2.456   1.900  0.0000  0.0000  0.0000
    1GR     C98   98   0.567   2.456   1.900  0.0000  0.0000  0.0000
    1GR     C99   99   0.638   2.579   1.900  0.0000  0.0000  0.0000
    1GR    C100  100   0.780   2.579   1.900  0.0000  0.0000  0.0000
    1GR    C101  101   0.425   2.702   1.900  0.0000  0.0000  0.0000
    1GR    C102  102   0.567   2.702   1.900  0.0000  0.0000  0.0000
    1GR    C103  103   0.638   2.824   1.900  0.0000  0.0000  0.0000
    1GR    C104  104   0.780   2.824   1.900  0.0000  0.0000  0.0000
    1GR    C105  105   0.425   2.947   1.900  0.0000  0.0000  0.0000
    1GR    C106  106   0.567   2.947   1.900  0.0000  0.0000  0.0000
    1GR    C107  107   0.638   3.070   1.900  0.0000  0.0000  0.0000
    1GR    C108  108   0.780   3.070   1.900  0.0000  0.0000  0.0000
    1GR    C109  109   0.425   3.193   1.900  0.0000  0.0000  0.0000
    1GR    C110  110   0.567   3.193   1.900  0.0000  0.0000  0.0000
    1GR    C111  111   0.638   3.316   1.900  0.0000  0.0000  0.0000
    1GR    C112  112   0.780   3.316   1.900  0.0000  0.0000  0.0000
    1GR    C113  113   0.851   0.000   1.900  0.0000  0.0000  0.0000
    1GR    C114  114   0.993   0.000   1.900  0.0000  0.0000  0.0000
    1GR    C115  115   1.064   0.123   1.900  0.0000  0.0000  0.0000
    1GR    C116  116   1.205   0.123   1.900  0.0000  0.0000  0.0000
    1GR    C117  117   0.851   0.246   1.900  0.0000  0.0000  0.0000
    1GR    C118  118   0.993   0.246   1.900  0.0000  0.0000  0.0000
    1GR    C119  119   1.064   0.368   1.900  0.0000  0.0000  0.0000
    1GR    C120  120   1.205   0.368   1.900  0.0000  0.0000  0.0000
    1GR    C121  121   0.851   0.491   1.900  0.0000  0.0000  0.0000
    1GR    C122  122   0.993   0.491   1.900  0.0000  0.0000  0.0000
    1GR    C123  123   1.064   0.614   1.900  0.0000  0.0000  0.0000
    1GR    C124  124   1.205   0.614   1.900  0.0000  0.0000  0.0000
    1GR    C125  125   0.851   0.737   1.900  0.0000  0.0000  0.0000
    1GR    C126  126   0.993   0.737   1.900  0.0000  0.0000  0.0000
    1GR    C127  127   1.064   0.860   1.900  0.0000  0.0000  0.0000
    1GR    C128  128   1.205   0.860   1.900  0.0000  0.0000  0.0000
    1GR    C129  129   0.851   0.982   1.900  0.0000  0.0000  0.0000
    1GR    C130  130   0.993   0.982   1.900  0.0000  0.0000  0.0000
    1GR    C131  131   1.064   1.105   1.900  0.0000  0.0000  0.0000
    1GR    C132  132   1.205   1.105   1.900  0.0000  0.0000  0.0000
    1GR    C133  133   0.851   1.228   1.900  0.0000  0.0000  0.0000
    1GR    C134  134   0.993   1.228   1.900  0.0000  0.0000  0.0000
    1GR    C135  135   1.064   1.351   1.900  0.0000  0.0000  0.0000
    1GR    C136  136   1.205   1.351   1.900  0.0000  0.0000  0.0000
    1GR    C137  137   0.851   1.474   1.900  0.0000  0.0000  0.0000
    1GR    C138  138   0.993   1.474   1.900  0.0000  0.0000  0.0000
    1GR    C139  139   1.064   1.596   1.900  0.0000  0.0000  0.0000
    1GR    C140  140   1.205   1.596   1.900  0.0000  0.0000  0.0000
    1GR    C141  141   0.851   1.719   1.900  0.0000  0.0000  0.0000
    1GR    C142  142   0.993   1.719   1.900  0.0000  0.0000  0.0000
    1GR    C143  143   1.064   1.842   1.900  0.0000  0.0000  0.0000
    1GR    C144  144   1.205   1.842   1.900  0.0000  0.0000  0.0000
    1GR    C145  145   0.851   1.965   1.900  0.0000  0.0000  0.0000
    1GR    C146  146   0.993   1.965   1.900  0.0000  0.0000  0.0000
    1GR    C147  147   1.064   2.088   1.900  0.0000  0.0000  0.0000
    1GR    C148  148   1.205   2.088   1.900  0.0000  0.0000  0.0000
    1GR    C149  149   0.851   2.210   1.900  0.0000  0.0000  0.0000
    1GR    C150  150   0.993   2.210   1.900  0.0000  0.0000  0.0000
    1GR    C151  151   1.064   2.333   1.900  0.0000  0.0000  0.0000
    1GR    C152  152   1.205   2.333   1.900  0.0000  0.0000  0.0000
    1GR    C153  153   0.851   2.456   1.900  0.0000  0.0000  0.0000
    1GR    C154  154   0.993   2.456   1.900  0.0000  0.0000  0.0000
    1GR    C155  155   1.064   2.579   1.900  0.0000  0.0000  0.0000
    1GR    C156  156   1.205   2.579   1.900  0.0000  0.0000  0.0000
    1GR    C157  157   0.851   2.702   1.900  0.0000  0.0000  0.0000
    1GR    C158  158   0.993   2.702   1.900  0.0000  0.0000  0.0000
    1GR    C159  159   1.064   2.824   1.900  0.0000  0.0000  0.0000
    1GR    C160  160   1.205   2.824   1.900  0.0000  0.0000  0.0000
    1GR    C161  161   0.851   2.947   1.900  0.0000  0.0000  0.0000
    1GR    C162  162   0.993   2.947   1.900  0.0000  0.0000  0.0000
    1GR    C163  163   1.064   3.070   1.900  0.0000  0.0000  0.0000
    1GR    C164  164   1.205   3.070   1.900  0.0000  0.0000  0.0000
    1GR    C165  165   0.851   3.193   1.900  0.0000  0.0000  0.0000
    1GR    C166  166   0.993   3.193   1.900  0.0000  0.0000  0.0000
    1GR    C167  167   1.064   3.316   1.900  0.0000  0.0000  0.0000
    1GR    C168  168   1.205   3.316   1.900  0.0000  0.0000  0.0000
    1GR    C169  169   1.276   0.000   1.900  0.0000  0.0000  0.0000
    1GR    C170  170   1.418   0.000   1.900  0.0000  0.0000  0.0000
    1GR    C171  171   1.489   0.123   1.900  0.0000  0.0000  0.0000
    1GR    C172  172   1.631   0.123   1.900  0.0000  0.0000  0.0000
    1GR    C173  173   1.276   0.246   1.900  0.0000  0.0000  0.0000
    1GR    C174  174   1.418   0.246   1.900  0.0000  0.0000  0.0000
    1GR    C175  175   1.489   0.368   1.900  0.0000  0.0000  0.0000
    1GR    C176  176   1.631   0.368   1.900  0.0000  0.0000  0.0000
    1GR    C177  177   1.276   0.491   1.900  0.0000  0.0000  0.0000
    1GR    C178  178   1.418   0.491   1.900  0.0000  0.0000  0.0000
    1GR    C179  179   1.489   0.614   1.900  0.0000  0.0000  0.0000
    1GR    C180  180   1.631   0.614   1.900  0.0000  0.0000  0.0000
    1GR    C181  181   1.276   0.737   1.900  0.0000  0.0000  0.0000
    1GR    C182  182   1.418   0.737   1.900  0.0000  0.0000  0.0000
    1GR    C183  183   1.489   0.860   1.900  0.0000  0.0000  0.0000
    1GR    C184  184   1.631   0.860   1.900  0.0000  0.0000  0.0000
    1GR    C185  185   1.276   0.982   1.900  0.0000  0.0000  0.0000
    1GR    C186  186   1.418   0.982   1.900  0.0000  0.0000  0.0000
    1GR    C187  187   1.489   1.105   1.900  0.0000  0.0000  0.0000
    1GR    C188  188   1.631   1.105   1.900  0.0000  0.0000  0.0000
    1GR    C189  189   1.276   1.228   1.900  0.0000  0.0000  0.0000
    1GR    C190  190   1.418   1.228   1.900  0.0000  0.0000  0.0000
    1GR    C191  191   1.489   1.351   1.900  0.0000  0.0000  0.0000
    1GR    C192  192   1.631   1.351   1.900  0.0000  0.0000  0.0000
    1GR    C193  193   1.276   1.474   1.900  0.0000  0.0000  0.0000
    1GR    C194  194   1.418   1.474   1.900  0.0000  0.0000  0.0000
    1GR    C195  195   1.489   1.596   1.900  0.0000  0.0000  0.0000
    1GR    C196  196   1.631   1.596   1.900  0.0000  0.0000  0.0000
    1GR    C197  197   1.276   1.719   1.900  0.0000  0.0000  0.0000
    1GR    C198  198   1.418   1.719   1.900  0.0000  0.0000  0.0000
    1GR    C199  199   1.489   1.842   1.900  0.0000  0.0000  0.0000
    1GR    C200  200   1.631   1.842   1.900  0.0000  0.0000  0.0000
    1GR    C201  201   1.276   1.965   1.900  0.0000  0.0000  0.0000
    1GR    C202  202   1.418   1.965   1.900  0.0000  0.0000  0.0000
    1GR    C203  203   1.489   2.088   1.900  0.0000  0.0000  0.0000
    1GR    C204  204   1.631   2.088   1.900  0.0000  0.0000  0.0000
    1GR    C205  205   1.276   2.210   1.900  0.0000  0.0000  0.0000
    1GR    C206  206   1.418   2.210   1.900  0.0000  0.0000  0.0000
    1GR    C207  207   1.489   2.333   1.900  0.0000  0.0000  0.0000
    1GR    C208  208   1.631   2.333   1.900  0.0000  0.0000  0.0000
    1GR    C209  209   1.276   2.456   1.900  0.0000  0.0000  0.0000
    1GR    C210  210   1.418   2.456   1.900  0.0000  0.0000  0.0000
    1GR    C211  211   1.489   2.579   1.900  0.0000  0.0000  0.0000
    1GR    C212  212   1.631   2.579   1.900  0.0000  0.0000  0.0000
    1GR    C213  213   1.276   2.702   1.900  0.0000  0.0000  0.0000
    1GR    C214  214   1.418   2.702   1.900  0.0000  0.0000  0.0000
    1GR    C215  215   1.489   2.824   1.900  0.0000  0.0000  0.0000
    1GR    C216  216   1.631   2.824   1.900  0.0000  0.0000  0.0000
    1GR    C217  217   1.276   2.947   1.900  0.0000  0.0000  0.0000
    1GR    C218  218   1.418   2.947   1.900  0.0000  0.0000  0.0000
    1GR    C219  219   1.489   3.070   1.900  0.0000  0.0000  0.0000
    1GR    C220  220   1.631   3.070   1.900  0.0000  0.0000  0.0000
    1GR    C221  221   1.276   3.193   1.900  0.0000  0.0000  0.0000
    1GR    C222  222   1.418   3.193   1.900  0.0000  0.0000  0.0000
    1GR    C223  223   1.489   3.316   1.900  0.0000  0.0000  0.0000
    1GR    C224  224   1.631   3.316   1.900  0.0000  0.0000  0.0000
    1GR    C225  225   1.702   0.000   1.900  0.0000  0.0000  0.0000
    1GR    C226  226   1.843   0.000   1.900  0.0000  0.0000  0.0000
    1GR    C227  227   1.914   0.123   1.900  0.0000  0.0000  0.0000
    1GR    C228  228   2.056   0.123   1.900  0.0000  0.0000  0.0000
    1GR    C229  229   1.702   0.246   1.900  0.0000  0.0000  0.0000
    1GR    C230  230   1.843   0.246   1.900  0.0000  0.0000  0.0000
    1GR    C231  231   1.914   0.368   1.900  0.0000  0.0000  0.0000
    1GR    C232  232   2.056   0.368   1.900  0.0000  0.0000  0.0000
    1GR    C233  233   1.702   0.491   1.900  0.0000  0.0000  0.0000
    1GR    C234  234   1.843   0.491   1.900  0.0000  0.0000  0.0000
    1GR    C235  235   1.914   0.614   1.900  0.0000  0.0000  0.0000
    1GR    C236  236   2.056   0.614   1.900  0.0000  0.0000  0.0000
    1GR    C237  237   1.702   0.737   1.900  0.0000  0.0000  0.0000
    1GR    C238  238   1.843   0.737   1.900  0.0000  0.0000  0.0000
    1GR    C239  239   1.914   0.860   1.900  0.0000  0.0000  0.0000
    1GR    C240  240   2.056   0.860   1.900  0.0000  0.0000  0.0000
    1GR    C241  241   1.702   0.982   1.900  0.0000  0.0000  0.0000
    1GR    C242  242   1.843   0.982   1.900  0.0000  0.0000  0.0000
    1GR    C243  243   1.914   1.105   1.900  0.0000  0.0000  0.0000
    1GR    C244  244   2.056   1.105   1.900  0.0000  0.0000  0.0000
    1GR    C245  245   1.702   1.228   1.900  0.0000  0.0000  0.0000
    1GR    C246  246   1.843   1.228   1.900  0.0000  0.0000  0.0000
    1GR    C247  247   1.914   1.351   1.900  0.0000  0.0000  0.0000
    1GR    C248  248   2.056   1.351   1.900  0.0000  0.0000  0.0000
    1GR    C249  249   1.702   1.474   1.900  0.0000  0.0000  0.0000
    1GR    C250  250   1.843   1.474   1.900  0.0000  0.0000  0.0000
    1GR    C251  251   1.914   1.596   1.900  0.0000  0.0000  0.0000
    1GR    C252  252   2.056   1.596   1.900  0.0000  0.0000  0.0000
    1GR    C253  253   1.702   1.719   1.900  0.0000  0.0000  0.0000
    1GR    C254  254   1.843   1.719   1.900  0.0000  0.0000  0.0000
    1GR    C255  255   1.914   1.842   1.900  0.0000  0.0000  0.0000
    1GR    C256  256   2.056   1.842   1.900  0.0000  0.0000  0.0000
    1GR    C257  257   1.702   1.965   1.900  0.0000  0.0000  0.0000
    1GR    C258  258   1.843   1.965   1.900  0.0000  0.0000  0.0000
    1GR    C259  259   1.914   2.088   1.900  0.0000  0.0000  0.0000
    1GR    C260  260   2.056   2.088   1.900  0.0000  0.0000  0.0000
    1GR    C261  261   1.702   2.210   1.900  0.0000  0.0000  0.0000
    1GR    C262  262   1.843   2.210   1.900  0.0000  0.0000  0.0000
    1GR    C263  263   1.914   2.333   1.900  0.0000  0.0000  0.0000
    1GR    C264  264   2.056   2.333   1.900  0.0000  0.0000  0.0000
    1GR    C265  265   1.702   2.456   1.900  0.0000  0.0000  0.0000
    1GR    C266  266   1.843   2.456   1.900  0.0000  0.0000  0.0000
    1GR    C267  267   1.914   2.579   1.900  0.0000  0.0000  0.0000
    1GR    C268  268   2.056   2.579   1.900  0.0000  0.0000  0.0000
    1GR    C269  269   1.702   2.702   1.900  0.0000  0.0000  0.0000
    1GR    C270  270   1.843   2.702   1.900  0.0000  0.0000  0.0000
    1GR    C271  271   1.914   2.824   1.900  0.0000  0.0000  0.0000
    1GR    C272  272   2.056   2.824   1.900  0.0000  0.0000  0.0000
    1GR    C273  273   1.702   2.947   1.900  0.0000  0.0000  0.0000
    1GR    C274  274   1.843   2.947   1.900  0.0000  0.0000  0.0000
    1GR    C275  275   1.914   3.070   1.900  0.0000  0.0000  0.0000
    1GR    C276  276   2.056   3.070   1.900  0.0000  0.0000  0.0000
    1GR    C277  277   1.702   3.193   1.900  0.0000  0.0000  0.0000
    1GR    C278  278   1.843   3.193   1.900  0.0000  0.0000  0.0000
    1GR    C279  279   1.914   3.316   1.900  0.0000  0.0000  0.0000
    1GR    C280  280   2.056   3.316   1.900  0.0000  0.0000  0.0000
    1GR    C281  281   2.127   0.000   1.900  0.0000  0.0000  0.0000
    1GR    C282  282   2.269   0.000   1.900  0.0000  0.0000  0.0000
    1GR    C283  283   2.340   0.123   1.900  0.0000  0.0000  0.0000
    1GR    C284  284   2.481   0.123   1.900  0.0000  0.0000  0.0000
    1GR    C285  285   2.127   0.246   1.900  0.0000  0.0000  0.0000
    1GR    C286  286   2.269   0.246   1.900  0.0000  0.0000  0.0000
    1GR    C287  287   2.340   0.368   1.900  0.0000  0.0000  0.0000
    1GR    C288  288   2.481   0.368   1.900  0.0000  0.0000  0.0000
    1GR    C289  289   2.127   0.491   1.900  0.0000  0.0000  0.0000
    1GR    C290  290   2.269   0.491   1.900  0.0000  0.0000  0.0000
    1GR    C291  291   2.340   0.614   1.900  0.0000  0.0000  0.0000
    1GR    C292  292   2.481   0.614   1.900  0.0000  0.0000  0.0000
    1GR    C293  293   2.127   0.737   1.900  0.0000  0.0000  0.0000
    1GR    C294  294   2.269   0.737   1.900  0.0000  0.0000  0.0000
    1GR    C295  295   2.340   0.860   1.900  0.0000  0.0000  0.0000
    1GR    C296  296   2.481   0.860   1.900  0.0000  0.0000  0.0000
    1GR    C297  297   2.127   0.982   1.900  0.0000  0.0000  0.0000
    1GR    C298  298   2.269   0.982   1.900  0.0000  0.0000  0.0000
    1GR    C299  299   2.340   1.105   1.900  0.0000  0.0000  0.0000
    1GR    C300  300   2.481   1.105   1.900  0.0000  0.0000  0.0000
    1GR    C301  301   2.127   1.228   1.900  0.0000  0.0000  0.0000
    1GR    C302  302   2.269   1.228   1.900  0.0000  0.0000  0.0000
    1GR    C303  303   2.340   1.351   1.900  0.0000  0.0000  0.0000
    1GR    C304  304   2.481   1.351   1.900  0.0000  0.0000  0.0000
    1GR    C305  305   2.127   1.474   1.900  0.0000  0.0000  0.0000
    1GR    C306  306   2.269   1.474   1.900  0.0000  0.0000  0.0000
    1GR    C307  307   2.340   1.596   1.900  0.0000  0.0000  0.0000
    1GR    C308  308   2.481   1.596   1.900  0.0000  0.0000  0.0000
    1GR    C309  309   2.127   1.719   1.900  0.0000  0.0000  0.0000
    1GR    C310  310   2.269   1.719   1.900  0.0000  0.0000  0.0000
    1GR    C311  311   2.340   1.842   1.900  0.0000  0.0000  0.0000
    1GR    C312  312   2.481   1.842   1.900  0.0000  0.0000  0.0000
    1GR    C313  313   2.127   1.965   1.900  0.0000  0.0000  0.0000
    1GR    C314  314   2.269   1.965   1.900  0.0000  0.0000  0.0000
    1GR    C315  315   2.340   2.088   1.900  0.0000  0.0000  0.0000
    1GR    C316  316   2.481   2.088   1.900  0.0000  0.0000  0.0000
    1GR    C317  317   2.127   2.210   1.900  0.0000  0.0000  0.0000
    1GR    C318  318   2.269   2.210   1.900  0.0000  0.0000  0.0000
    1GR    C319  319   2.340   2.333   1.900  0.0000  0.0000  0.0000
    1GR    C320  320   2.481   2.333   1.900  0.0000  0.0000  0.0000
    1GR    C321  321   2.127   2.456   1.900  0.0000  0.0000  0.0000
    1GR    C322  322   2.269   2.456   1.900  0.0000  0.0000  0.0000
    1GR    C323  323   2.340   2.579   1.900  0.0000  0.0000  0.0000
    1GR    C324  324   2.481   2.579   1.900  0.0000  0.0000  0.0000
    1GR    C325  325   2.127   2.702   1.900  0.0000  0.0000  0.0000
    1GR    C326  326   2.269   2.702   1.900  0.0000  0.0000  0.0000
    1GR    C327  327   2.340   2.824   1.900  0.0000  0.0000  0.0000
    1GR    C328  328   2.481   2.824   1.900  0.0000  0.0000  0.0000
    1GR    C329  329   2.127   2.947   1.900  0.0000  0.0000  0.0000
    1GR    C330  330   2.269   2.947   1.900  0.0000  0.0000  0.0000
    1GR    C331  331   2.340   3.070   1.900  0.0000  0.0000  0.0000
    1GR    C332  332   2.481   3.070   1.900  0.0000  0.0000  0.0000
    1GR    C333  333   2.127   3.193   1.900  0.0000  0.0000  0.0000
    1GR    C334  334   2.269   3.193   1.900  0.0000  0.0000  0.0000
    1GR    C335  335   2.340   3.316   1.900  0.0000  0.0000  0.0000
    1GR    C336  336   2.481   3.316   1.900  0.0000  0.0000  0.0000
    1GR    C337  337   2.552   0.000   1.900  0.0000  0.0000  0.0000
    1GR    C338  338   2.694   0.000   1.900  0.0000  0.0000  0.0000
    1GR    C339  339   2.765   0.123   1.900  0.0000  0.0000  0.0000
    1GR    C340  340   2.907   0.123   1.900  0.0000  0.0000  0.0000
    1GR    C341  341   2.552   0.246   1.900  0.0000  0.0000  0.0000
    1GR    C342  342   2.694   0.246   1.900  0.0000  0.0000  0.0000
    1GR    C343  343   2.765   0.368   1.900  0.0000  0.0000  0.0000
    1GR    C344  344   2.907   0.368   1.900  0.0000  0.0000  0.0000
    1GR    C345  345   2.552   0.491   1.900  0.0000  0.0000  0.0000
    1GR    C346  346   2.694   0.491   1.900  0.0000  0.0000  0.0000
    1GR    C347  347   2.765   0.614   1.900  0.0000  0.0000  0.0000
    1GR    C348  348   2.907   0.614   1.900  0.0000  0.0000  0.0000
    1GR    C349  349   2.552   0.737   1.900  0.0000  0.0000  0.0000
    1GR    C350  350   2.694   0.737   1.900  0.0000  0.0000  0.0000
    1GR    C351  351   2.765   0.860   1.900  0.0000  0.0000  0.0000
    1GR    C352  352   2.907   0.860   1.900  0.0000  0.0000  0.0000
    1GR    C353  353   2.552   0.982   1.900  0.0000  0.0000  0.0000
    1GR    C354  354   2.694   0.982   1.900  0.0000  0.0000  0.0000
    1GR    C355  355   2.765   1.105   1.900  0.0000  0.0000  0.0000
    1GR    C356  356   2.907   1.105   1.900  0.0000  0.0000  0.0000
    1GR    C357  357   2.552   1.228   1.900  0.0000  0.0000  0.0000
    1GR    C358  358   2.694   1.228   1.900  0.0000  0.0000  0.0000
    1GR    C359  359   2.765   1.351   1.900  0.0000  0.0000  0.0000
    1GR    C360  360   2.907   1.351   1.900  0.0000  0.0000  0.0000
    1GR    C361  361   2.552   1.474   1.900  0.0000  0.0000  0.0000
    1GR    C362  362   2.694   1.474   1.900  0.0000  0.0000  0.0000
    1GR    C363  363   2.765   1.596   1.900  0.0000  0.0000  0.0000
    1GR    C364  364   2.907   1.596   1.900  0.0000  0.0000  0.0000
    1GR    C365  365   2.552   1.719   1.900  0.0000  0.0000  0.0000
    1GR    C366  366   2.694   1.719   1.900  0.0000  0.0000  0.0000
    1GR    C367  367   2.765   1.842   1.900  0.0000  0.0000  0.0000
    1GR    C368  368   2.907   1.842   1.900  0.0000  0.0000  0.0000
    1GR    C369  369   2.552   1.965   1.900  0.0000  0.0000  0.0000
    1GR    C370  370   2.694   1.965   1.900  0.0000  0.0000  0.0000
    1GR    C371  371   2.765   2.088   1.900  0.0000  0.0000  0.0000
    1GR    C372  372   2.907   2.088   1.900  0.0000  0.0000  0.0000
    1GR    C373  373   2.552   2.210   1.900  0.0000  0.0000  0.0000
    1GR    C374  374   2.694   2.210   1.900  0.0000  0.0000  0.0000
    1GR    C375  375   2.765   2.333   1.900  0.0000  0.0000  0.0000
    1GR    C376  376   2.907   2.333   1.900  0.0000  0.0000  0.0000
    1GR    C377  377   2.552   2.456   1.900  0.0000  0.0000  0.0000
    1GR    C378  378   2.694   2.456   1.900  0.0000  0.0000  0.0000
    1GR    C379  379   2.765   2.579   1.900  0.0000  0.0000  0.0000
    1GR    C380  380   2.907   2.579   1.900  0.0000  0.0000  0.0000
    1GR    C381  381   2.552   2.702   1.900  0.0000  0.0000  0.0000
    1GR    C382  382   2.694   2.702   1.900  0.0000  0.0000  0.0000
    1GR    C383  383   2.765   2.824   1.900  0.0000  0.0000  0.0000
    1GR    C384  384   2.907   2.824   1.900  0.0000  0.0000  0.0000
    1GR    C385  385   2.552   2.947   1.900  0.0000  0.0000  0.0000
    1GR    C386  386   2.694   2.947   1.900  0.0000  0.0000  0.0000
    1GR    C387  387   2.765   3.070   1.900  0.0000  0.0000  0.0000
    1GR    C388  388   2.907   3.070   1.900  0.0000  0.0000  0.0000
    1GR    C389  389   2.552   3.193   1.900  0.0000  0.0000  0.0000
    1GR    C390  390   2.694   3.193   1.900  0.0000  0.0000  0.0000
    1GR    C391  391   2.765   3.316   1.900  0.0000  0.0000  0.0000
    1GR    C392  392   2.907   3.316   1.900  0.0000  0.0000  0.0000
    1GR    C393  393   2.978   0.000   1.900  0.0000  0.0000  0.0000
    1GR    C394  394   3.120   0.000   1.900  0.0000  0.0000  0.0000
    1GR    C395  395   3.191   0.123   1.900  0.0000  0.0000  0.0000
    1GR    C396  396   3.332   0.123   1.900  0.0000  0.0000  0.0000
    1GR    C397  397   2.978   0.246   1.900  0.0000  0.0000  0.0000
    1GR    C398  398   3.120   0.246   1.900  0.0000  0.0000  0.0000
    1GR    C399  399   3.191   0.368   1.900  0.0000  0.0000  0.0000
    1GR    C400  400   3.332   0.368   1.900  0.0000  0.0000  0.0000
    1GR    C401  401   2.978   0.491   1.900  0.0000  0.0000  0.0000
    1GR    C402  402   3.120   0.491   1.900  0.0000  0.0000  0.0000
    1GR    C403  403   3.191   0.614   1.900  0.0000  0.0000  0.0000
    1GR    C404  404   3.332   0.614   1.900  0.0000  0.0000  0.0000
    1GR    C405  405   2.978   0.737   1.900  0.0000  0.0000  0.0000
    1GR    C406  406   3.120   0.737   1.900  0.0000  0.0000  0.0000
    1GR    C407  407   3.191   0.860   1.900  0.0000  0.0000  0.0000
    1GR    C408  408   3.332   0.860   1.900  0.0000  0.0000  0.0000
    1GR    C409  409   2.978   0.982   1.900  0.0000  0.0000  0.0000
    1GR    C410  410   3.120   0.982   1.900  0.0000  0.0000  0.0000
    1GR    C411  411   3.191   1.105   1.900  0.0000  0.0000  0.0000
    1GR    C412  412   3.332   1.105   1.900  0.0000  0.0000  0.0000
    1GR    C413  413   2.978   1.228   1.900  0.0000  0.0000  0.0000
    1GR    C414  414   3.120   1.228   1.900  0.0000  0.0000  0.0000
    1GR    C415  415   3.191   1.351   1.900  0.0000  0.0000  0.0000
    1GR    C416  416   3.332   1.351   1.900  0.0000  0.0000  0.0000
    1GR    C417  417   2.978   1.474   1.900  0.0000  0.0000  0.0000
    1GR    C418  418   3.120   1.474   1.900  0.0000  0.0000  0.0000
    1GR    C419  419   3.191   1.596   1.900  0.0000  0.0000  0.0000
    1GR    C420  420   3.332   1.596   1.900  0.0000  0.0000  0.0000
    1GR    C421  421   2.978   1.719   1.900  0.0000  0.0000  0.0000
    1GR    C422  422   3.120   1.719   1.900  0.0000  0.0000  0.0000
    1GR    C423  423   3.191   1.842   1.900  0.0000  0.0000  0.0000
    1GR    C424  424   3.332   1.842   1.900  0.0000  0.0000  0.0000
    1GR    C425  425   2.978   1.965   1.900  0.0000  0.0000  0.0000
    1GR    C426  426   3.120   1.965   1.900  0.0000  0.0000  0.0000
    1GR    C427  427   3.191   2.088   1.900  0.0000  0.0000  0.0000
    1GR    C428  428   3.332   2.088   1.900  0.0000  0.0000  0.0000
    1GR    C429  429   2.978   2.210   1.900  0.0000  0.0000  0.0000
    1GR    C430  430   3.120   2.210   1.900  0.0000  0.0000  0.0000
    1GR    C431  431   3.191   2.333   1.900  0.0000  0.0000  0.0000
    1GR    C432  432   3.332   2.333   1.900  0.0000  0.0000  0.0000
    1GR    C433  433   2.978   2.456   1.900  0.0000  0.0000  0.0000
    1GR    C434  434   3.120   2.456   1.900  0.0000  0.0000  0.0000
    1GR    C435  435   3.191   2.579   1.900  0.0000  0.0000  0.0000
    1GR    C436  436   3.332   2.579   1.900  0.0000  0.0000  0.0000
    1GR    C437  437   2.978   2.702   1.900  0.0000  0.0000  0.0000
    1GR    C438  438   3.120   2.702   1.900  0.0000  0.0000  0.0000
    1GR    C439  439   3.191   2.824   1.900  0.0000  0.0000  0.0000
    1GR    C440  440   3.332   2.824   1.900  0.0000  0.0000  0.0000
    1GR    C441  441   2.978   2.947   1.900  0.0000  0.0000  0.0000
    1GR    C442  442   3.120   2.947   1.900  0.0000  0.0000  0.0000
    1GR    C443  443   3.191   3.070   1.900  0.0000  0.0000  0.0000
    1GR    C444  444   3.332   3.070   1.900  0.0000  0.0000  0.0000
    1GR    C445  445   2.978   3.193   1.900  0.0000  0.0000  0.0000
    1GR    C446  446   3.120   3.193   1.900  0.0000  0.0000  0.0000
    1GR    C447  447   3.191   3.316   1.900  0.0000  0.0000  0.0000
    1GR    C448  448   3.332   3.316   1.900  0.0000  0.0000  0.0000
    2PMMA   CX1  449   1.542   0.904   2.288  0.1392 -0.0407 -0.3989
    2PMMA   CA2  450   1.594   0.776   2.354  0.1064 -0.0477 -0.5873
    2PMMA   CX3  451   1.724   0.729   2.277 -0.3989 -0.1586 -0.0903
    2PMMA    C4  452   1.613   0.801   2.503  0.2053 -0.3245 -0.0265
    2PMMA    O5  453   1.539   0.873   2.568 -0.1915 -0.2323  0.9848
    2PMMA   OS6  454   1.730   0.760   2.550 -0.2171 -0.2128 -0.5741
    2PMMA   CE7  455   1.765   0.793   2.684 -0.4155  0.3136 -0.9363
    2PMMA   CX8  456   1.472   0.677   2.327 -0.2936 -0.0279  1.1806
    2PMMA   CA9  457   1.474   0.527   2.383  0.5060 -0.0628  0.2598
    2PMMA  CX10  458   1.578   0.447   2.296 -0.2348  0.7427 -0.1627
    2PMMA   C11  459   1.335   0.454   2.350 -0.3377  0.4985  0.1765
    2PMMA   O12  460   1.327   0.333   2.348  0.1872 -0.0389  0.0287
    2PMMA  OS13  461   1.234   0.536   2.317 -0.1035 -0.1428 -0.1995
    2PMMA  CE14  462   1.119   0.477   2.259 -0.5326  0.0216  0.0585
    2PMMA  CX15  463   1.507   0.524   2.535  0.4918  0.6618  0.5505
    2PMMA  CA16  464   1.477   0.406   2.634 -0.3384 -0.2913 -0.6263
    2PMMA  CX17  465   1.529   0.456   2.774 -0.7524  0.1170 -0.0261
    2PMMA   C18  466   1.324   0.382   2.643 -1.3594  0.3151 -0.0733
    2PMMA   O19  467   1.242   0.473   2.640 -0.1298  0.4907 -0.0550
    2PMMA  OS20  468   1.281   0.253   2.641 -0.1657 -0.7829  0.3051
    2PMMA  CE21  469   1.148   0.215   2.623 -0.3307  0.1116 -0.4566
    2PMMA  CX22  470   1.569   0.280   2.590 -0.1423 -0.5387  0.1149
    2PMMA  CA23  471   1.618   0.166   2.686 -0.3354  0.4457  0.0653
    2PMMA  CX24  472   1.501   0.104   2.766 -0.4244  0.2193  0.3861
    2PMMA   C25  473   1.740   0.204   2.767  0.2719 -0.8782  0.4077
    2PMMA   O26  474   1.844   0.244   2.720 -0.1717 -0.1032  0.0423
    2PMMA  OS27  475   1.731   0.175   2.894  0.0448  0.4673 -0.1667
    2PMMA  CE28  476   1.853   0.184   2.975 -0.2418  0.0285  0.3627
    2PMMA  CX29  477   1.668   0.049   2.591  0.0762  0.1187  0.4109
    2PMMA  HC30  478   1.616   0.984   2.278 -0.8849  1.0203  0.2290
    2PMMA  HC31  479   1.527   0.881   2.182  0.1787 -0.2500 -0.3567
    2PMMA  HC32  480   1.450   0.948   2.330 -1.2433 -2.8455 -0.4115
    2PMMA  HC33  481   1.779   0.645   2.320 -0.2953 -0.1502 -0.2063
    2PMMA  HC34  482   1.794   0.813   2.266 -0.8171  0.0192 -1.5923
    2PMMA  HC35  483   1.699   0.687   2.179 -1.5028  2.0965 -0.8147
    2PMMA  H136  484   1.748   0.898   2.710 -2.3186  0.2412 -1.8458
    2PMMA  H137  485   1.871   0.771   2.701 -0.6114  0.9257  1.3423
    2PMMA  H138  486   1.715   0.724   2.752 -0.1631 -0.5540 -1.6245
    2PMMA  HC39  487   1.381   0.725   2.364  0.0024  2.3205 -0.9941
    2PMMA  HC40  488   1.455   0.678   2.219 -3.3869  1.0016  1.6312
    2PMMA  HC41  489   1.572   0.469   2.189  0.5272 -2.1212 -0.8487
    2PMMA  HC42  490   1.678   0.466   2.338 -0.7009  1.2577  0.7495
    2PMMA  HC43  491   1.571   0.338   2.305  0.5241  0.5745 -1.4726
    2PMMA  H144  492   1.141   0.430   2.163 -0.4624 -0.1455  0.1563
    2PMMA  H145  493   1.036   0.546   2.242 -0.2492  0.0419 -1.2420
    2PMMA  H146  494   1.071   0.398   2.318 -0.8413 -0.0543 -0.2939
    2PMMA  HC47  495   1.614   0.546   2.540  0.5690  0.5603 -0.6040
    2PMMA  HC48  496   1.456   0.613   2.575 -0.9726 -0.2538  0.7362
    2PMMA  HC49  497   1.637   0.463   2.761 -0.3494 -3.9054  0.3777
    2PMMA  HC50  498   1.511   0.385   2.856 -1.1563 -0.2198 -0.4036
    2PMMA  HC51  499   1.491   0.557   2.795  1.1645  0.8921 -0.1879
    2PMMA  H152  500   1.118   0.257   2.527 -0.4073  0.3467 -0.3322
    2PMMA  H153  501   1.100   0.261   2.710  0.6853 -0.4414  0.4042
    2PMMA  H154  502   1.132   0.108   2.629 -2.7679  0.5033  0.9015
    2PMMA  HC55  503   1.509   0.235   2.510  1.5872  0.6116 -1.8843
    2PMMA  HC56  504   1.657   0.318   2.537 -0.1230 -1.0340 -0.2151
    2PMMA  HC57  505   1.548   0.027   2.830  1.0132 -0.4767 -1.4652
    2PMMA  HC58  506   1.458   0.164   2.847  0.5439  0.3239  0.8324
    2PMMA  HC59  507   1.424   0.059   2.704 -0.8515 -0.1708  1.1846
    2PMMA  H160  508   1.926   0.107   2.947  0.3585  0.2634  1.2704
    2PMMA  H161  509   1.820   0.173   3.078  0.5700  1.6774  0.8199
    2PMMA  H162  510   1.903   0.281   2.976  0.1878 -0.1716 -0.5818
    2PMMA  HC63  511   1.590  -0.002   2.534  0.2887 -0.6448  0.7912
    2PMMA  HC64  512   1.746   0.089   2.526  2.4091 -1.2318  2.2805
    2PMMA  HC65  513   1.718  -0.027   2.652  1.4844  0.3017 -0.4917
    3DMF     C1  514   2.701   0.646   1.046 -0.3713  1.0123 -0.3260
    3DMF     N1  515   2.577   0.739   1.053 -0.6227 -0.7427 -0.4229
    3DMF     C2  516   2.447   0.675   1.043  0.4196  0.1237 -0.0944
    3DMF     C3  517   2.601   0.878   1.070  0.1033  0.3529  0.3203
    3DMF     O1  518   2.712   0.926   1.096  0.6065 -0.3040  0.1188
    3DMF     H1  519   2.765   0.678   0.963  0.6033 -0.8854 -0.3228
    3DMF     H2  520   2.668   0.542   1.042  0.2834  0.7637  0.7033
    3DMF     H3  521   2.759   0.658   1.138 -1.3546  0.9159  0.3025
    3DMF     H4  522   2.365   0.744   1.068  1.2974  2.1620 -2.6013
    3DMF     H5  523   2.442   0.597   1.119 -2.9523 -0.3807 -0.7444
    3DMF     H6  524   2.435   0.625   0.946 -0.1816 -0.0221  0.0538
    3DMF     H7  525   2.502   0.928   1.065 -1.4033 -2.5079  0.5214
    4DMF     C1  526   1.645   0.315   0.881 -0.2133 -0.7062 -0.2032
    4DMF     N1  527   1.636   0.171   0.852  0.2166 -0.1921  0.3270
    4DMF     C2  528   1.736   0.115   0.759 -0.0386  0.3778 -0.1397
    4DMF     C3  529   1.528   0.096   0.894  0.1053 -0.6811 -0.1857
    4DMF     O1  530   1.435   0.138   0.967  0.1027 -0.3269 -0.7187
    4DMF     H1  531   1.750   0.344   0.870 -0.7506  1.2709 -0.2691
    4DMF     H2  532   1.624   0.336   0.987  0.5068  0.7837 -0.3384
    4DMF     H3  533   1.587   0.380   0.815 -1.5393  0.8201  2.3947
    4DMF     H4  534   1.821   0.185   0.759  0.4609 -0.0933  3.9329
    4DMF     H5  535   1.694   0.089   0.661  0.5138  1.2491 -0.6150
    4DMF     H6  536   1.775   0.022   0.803 -0.7091 -0.0133 -0.3656
    4DMF     H7  537   1.532  -0.009   0.858 -2.7962 -2.1287  3.3628
    5DMF     C1  538   1.866   1.208   0.097 -0.3563  0.0705 -0.4394
    5DMF     N1  539   1.729   1.251   0.106 -0.2257  0.3564  0.3856
    5DMF     C2  540   1.681   1.274   0.238 -0.4574 -0.3250 -0.5657
    5DMF     C3  541   1.644   1.274  -0.001  0.5379  0.8045  0.7920
    5DMF     O1  542   1.671   1.266  -0.117  0.0575  0.1008 -0.3882
    5DMF     H1  543   1.872   1.100   0.115 -0.9673  0.0180 -0.5472
    5DMF     H2  544   1.923   1.277   0.161 -0.5473 -0.3014  0.1295
    5DMF     H3  545   1.915   1.225   0.000 -0.8695  1.7487 -0.4224
    5DMF     H4  546   1.732   1.217   0.317 -1.3113 -0.0940  0.1687
    5DMF     H5  547   1.575   1.250   0.251 -0.6343  1.3764  1.4572
    5DMF     H6  548   1.696   1.378   0.270  1.1899 -0.9039  0.6512
    5DMF     H7  549   1.544   1.315   0.021  1.0195  2.9543 -0.8234
    6DMF     C1  550   1.177   3.227   0.705 -0.5559 -0.1001  0.7369
    6DMF     N1  551   1.189   3.374   0.711  0.2370  0.5087  0.5352
    6DMF     C2  552   1.071   3.451   0.745  0.3311  0.3073 -0.3408
    6DMF     C3  553   1.300   3.444   0.668 -0.1208 -0.1878 -0.2509
    6DMF     O1  554   1.405   3.387   0.639 -0.4566  0.0597  0.1275
    6DMF     H1  555   1.074   3.203   0.736 -0.5550 -1.5457 -0.3093
    6DMF     H2  556   1.251   3.169   0.761 -0.8338 -1.6628 -0.4756
    6DMF     H3  557   1.187   3.190   0.603  2.0848  0.6373  0.6944
    6DMF     H4  558   1.004   3.469   0.660  0.4080 -1.0826 -0.7017
    6DMF     H5  559   1.104   3.552   0.773 -0.2419  0.5982 -0.7102
    6DMF     H6  560   1.016   3.415   0.833 -1.3390  0.0833 -1.4412
    6DMF     H7  561   1.294   3.554   0.660  1.5961 -0.0548 -0.0702
    7DMF     C1  562   2.710   2.023   3.755 -0.7236  0.4866  0.0223
    7DMF     N1  563   2.747   2.120   3.856  0.3694 -0.4662  0.4658
    7DMF     C2  564   2.876   2.181   3.840  0.6738  0.2702  0.1007
    7DMF     C3  565   2.672   2.146   3.969 -0.0574 -0.2858 -0.3503
    7DMF     O1  566   2.566   2.088   3.988  0.3512 -0.2964 -0.1623
    7DMF     H1  567   2.801   1.974   3.718 -0.2683  0.6136  0.9652
    7DMF     H2  568   2.664   2.077   3.672 -1.7111  1.1003  0.9549
    7DMF     H3  569   2.641   1.950   3.800 -0.6321 -0.2578 -1.0192
    7DMF     H4  570   2.968   2.131   3.872  1.3884 -0.1345 -2.4489
    7DMF     H5  571   2.872   2.271   3.903 -0.3049 -0.0529  0.5055
    7DMF     H6  572   2.883   2.205   3.733  0.6857 -0.1434  0.0067
    7DMF     H7  573   2.709   2.214   4.047 -0.7615  2.3170 -2.2131
    8DMF     C1  574   3.104   2.786   0.565  0.4755 -0.5119  0.2864
    8DMF     N1  575   3.245   2.777   0.606  0.4480 -0.0424  0.5938
    8DMF     C2  576   3.343   2.885   0.557 -0.0211  0.4800  0.5916
    8DMF     C3  577   3.296   2.667   0.674 -0.1121  0.5526  0.4134
    8DMF     O1  578   3.234   2.562   0.703  0.1154 -0.0367 -0.8980
    8DMF     H1  579   3.033   2.798   0.648  0.8762  0.2770  0.5175
    8DMF     H2  580   3.081   2.692   0.513 -0.3967 -0.4376  0.5225
    8DMF     H3  581   3.101   2.863   0.487  0.8187 -1.4871 -0.6941
    8DMF     H4  582   3.397   2.923   0.644  2.3625 -0.0116 -0.5916
    8DMF     H5  583   3.287   2.958   0.498  0.8069  0.2560 -0.5050
    8DMF     H6  584   3.423   2.845   0.493 -1.4788 -1.0428 -0.3250
    8DMF     H7  585   3.403   2.679   0.699 -0.2155 -1.5633  1.9917
    9DMF     C1  586   2.951   1.987   0.725 -0.0747 -0.0906  0.1450
    9DMF     N1  587   2.880   1.865   0.731  0.0634  0.0961 -0.3983
    9DMF     C2  588   2.756   1.852   0.649  0.6205 -0.2048  0.2509
    9DMF     C3  589   2.907   1.761   0.831  0.0496  0.8393  0.1609
    9DMF     O1  590   2.997   1.773   0.914 -0.3616 -0.1232 -0.3471
    9DMF     H1  591   2.886   2.068   0.690  0.8409  0.6383  0.0922
    9DMF     H2  592   3.033   1.979   0.652  0.3652  3.4905  0.1502
    9DMF     H3  593   2.985   2.013   0.826 -2.0265 -0.0566  0.8032
    9DMF     H4  594   2.707   1.754   0.661  1.4466 -1.0294 -2.6367
    9DMF     H5  595   2.779   1.861   0.542 -1.1268 -1.3714 -0.2571
    9DMF     H6  596   2.682   1.923   0.687  0.4586  0.1194 -0.6415
    9DMF     H7  597   2.846   1.669   0.819  2.2308 -0.7677  1.0086
   10DMF     C1  598   0.210   1.640   0.103  0.9055 -0.1847  0.1612
   10DMF     N1  599   0.263   1.760   0.039  0.0453  0.1096 -0.6623
   10DMF     C2  600   0.236   1.764  -0.106 -0.3908 -0.2519  0.0725
   10DMF     C3  601   0.308   1.869   0.109 -0.1931  0.4700  0.4822
   10DMF     O1  602   0.301   1.884   0.228  0.0713  0.0931  0.2872
   10DMF     H1  603   0.269   1.628   0.194 -1.2092 -0.7240  1.4810
   10DMF     H2  604   0.214   1.555   0.033 -0.3386  0.1622 -0.3456
   10DMF     H3  605   0.107   1.639   0.140  1.5823 -0.0930  2.0533
   10DMF     H4  606   0.276   1.689  -0.174 -0.3713  0.0846 -0.2905
   10DMF     H5  607   0.271   1.859  -0.148  1.1616  0.5652  3.0304
   10DMF     H6  608   0.127   1.769  -0.113 -0.3754  0.2038  0.1449
   10DMF     H7  609   0.334   1.945   0.032  0.8580 -1.6497 -1.3138
   11DMF     C1  610   2.850   1.339   0.580 -0.6471 -0.0288  0.2263
   11DMF     N1  611   2.978   1.319   0.504  0.0173 -0.1350 -0.2827
   11DMF     C2  612   3.110   1.341   0.571 -0.3066  0.8460  0.2562
   11DMF     C3  613   2.968   1.305   0.367  0.3127  0.8115 -0.4604
   11DMF     O1  614   2.863   1.291   0.314  0.3499 -0.7755  0.4052
   11DMF     H1  615   2.867   1.392   0.674 -2.1275  2.1986 -0.7240
   11DMF     H2  616   2.790   1.246   0.580 -0.0155 -0.4817 -2.3094
   11DMF     H3  617   2.783   1.404   0.522 -0.9617  0.3428  0.9913
   11DMF     H4  618   3.169   1.421   0.525 -0.0715 -0.2486 -1.3795
   11DMF     H5  619   3.166   1.246   0.564  1.3641  1.9612 -2.2724
   11DMF     H6  620   3.093   1.366   0.677  0.5288  2.0933  0.1057
   11DMF     H7  621   3.066   1.314   0.316  0.7241 -1.7432 -0.1912
   12DMF     C1  622   1.434   0.765   1.518 -0.2491 -0.1876  0.1955
   12DMF     N1  623   1.440   0.618   1.538  0.1151 -0.0876 -0.5989
   12DMF     C2  624   1.568   0.552   1.521  0.4283 -0.2356 -0.3685
   12DMF     C3  625   1.330   0.541   1.579 -0.1122  0.0430  0.1365
   12DMF     O1  626   1.216   0.586   1.594 -0.0452  0.2013 -0.2083
   12DMF     H1  627   1.504   0.788   1.436 -0.5998 -0.1800 -0.1045
   12DMF     H2  628   1.462   0.812   1.612  0.6340 -1.4853  0.5957
   12DMF     H3  629   1.331   0.792   1.492 -0.2632  2.8016  3.1101
   12DMF     H4  630   1.644   0.628   1.540 -0.2404  0.4961 -0.6024
   12DMF     H5  631   1.583   0.514   1.419  0.3606 -0.2938 -0.3574
   12DMF     H6  632   1.574   0.466   1.590  1.3606 -0.3072 -0.5441
   12DMF     H7  633   1.363   0.436   1.591 -0.6176 -0.1908 -0.5000
   13DMF     C1  634   1.705   2.018   0.150 -0.0834  0.5904  0.0651
   13DMF     N1  635   1.618   1.905   0.173 -0.2420  0.0129  1.1618
   13DMF     C2  636   1.485   1.916   0.121 -0.0081 -0.2501 -0.3142
   13DMF     C3  637   1.669   1.780   0.211 -0.7861 -0.0152  0.2284
   13DMF     O1  638   1.790   1.765   0.232  0.0805  0.0418  0.0428
   13DMF     H1  639   1.799   1.984   0.105  0.7002 -0.0448  2.1681
   13DMF     H2  640   1.734   2.062   0.246 -0.2295  2.0398 -0.5297
   13DMF     H3  641   1.662   2.092   0.081 -0.2124  0.7028  0.2656
   13DMF     H4  642   1.457   2.019   0.099  1.4228 -0.3088 -2.6287
   13DMF     H5  643   1.417   1.876   0.197  0.4357 -2.0316 -0.8221
   13DMF     H6  644   1.482   1.868   0.022  1.0315  0.4879 -0.7139
   13DMF     H7  645   1.585   1.709   0.225 -0.7778  0.3042  1.9406
   14DMF     C1  646   0.438   0.095   1.552  0.1219  0.1698  0.1130
   14DMF     N1  647   0.511  -0.004   1.470  0.0670 -0.2874 -0.3302
   14DMF     C2  648   0.505  -0.141   1.520  0.2319 -0.0727 -0.3623
   14DMF     C3  649   0.589   0.037   1.356 -0.3590  0.4251  0.1798
   14DMF     O1  650   0.597   0.158   1.329  0.2745  1.0451  0.5305
   14DMF     H1  651   0.397   0.054   1.645  1.4649  0.7692  0.9770
   14DMF     H2  652   0.360   0.149   1.497  0.1117 -2.6689 -2.7721
   14DMF     H3  653   0.512   0.167   1.588 -0.0123 -0.3702  1.5255
   14DMF     H4  654   0.568  -0.210   1.462  1.4702  0.8059 -0.1004
   14DMF     H5  655   0.403  -0.180   1.516 -0.1526  0.6542  1.7932
   14DMF     H6  656   0.538  -0.139   1.625 -1.4953 -1.1751  0.2264
   14DMF     H7  657   0.656  -0.041   1.316  0.7386  0.7483  1.3558
   15DMF     C1  658   2.339   1.596   0.292 -0.0673  0.0616  0.0907
   15DMF     N1  659   2.347   1.718   0.215 -0.4698 -0.3503 -0.3682
   15DMF     C2  660   2.323   1.844   0.288  0.6951  0.5621 -0.3204
   15DMF     C3  661   2.370   1.727   0.073  0.3008 -0.2565  0.0099
   15DMF     O1  662   2.399   1.630   0.012 -0.4041 -0.4625  0.4951
   15DMF     H1  663   2.433   1.587   0.347  0.0336 -2.7944 -0.4703
   15DMF     H2  664   2.339   1.508   0.227  1.4790  1.1264 -1.3858
   15DMF     H3  665   2.249   1.591   0.355  1.2594 -1.0792  1.9222
   15DMF     H4  666   2.420   1.889   0.311  0.8990 -0.2090  0.3713
   15DMF     H5  667   2.252   1.814   0.367  1.9661  0.6121  0.8687
   15DMF     H6  668   2.265   1.911   0.225  1.0350  1.4492  0.3026
   15DMF     H7  669   2.374   1.831   0.036 -1.4284  0.2535  1.2303
   16DMF     C1  670   2.947   2.183   3.086  0.5738 -0.2685 -0.3327
   16DMF     N1  671   2.957   2.112   3.219  0.5590 -0.4878 -0.3321
   16DMF     C2  672   2.894   2.173   3.341 -0.3022 -0.0380  0.3267
   16DMF     C3  673   3.004   1.981   3.228  0.1446 -0.2061  0.1037
   16DMF     O1  674   3.053   1.920   3.137  0.3753  0.3146  0.1740
   16DMF     H1  675   2.940   2.292   3.095  0.9005 -0.0192 -2.8009
   16DMF     H2  676   2.856   2.150   3.035  0.4584 -0.8171  0.2221
   16DMF     H3  677   3.039   2.170   3.027  0.4687  1.9592 -1.0206
   16DMF     H4  678   2.816   2.111   3.387 -1.3483  0.2497 -1.0304
   16DMF     H5  679   2.853   2.272   3.315 -1.2321 -0.3810  0.4525
   16DMF     H6  680   2.983   2.198   3.399 -0.6196  0.7449  0.4794
   16DMF     H7  681   2.990   1.948   3.332  0.9923  1.7750  0.8607
   17DMF     C1  682   0.098   1.440   0.705 -0.0737 -0.1783  0.0531
   17DMF     N1  683   0.111   1.298   0.653 -0.2011  0.2974  0.3069
   17DMF     C2  684   0.102   1.280   0.508  0.3935  0.0978  0.3640
   17DMF     C3  685   0.120   1.186   0.736 -0.4006 -0.0008 -0.6037
   17DMF     O1  686   0.139   1.198   0.856  0.9979  0.8730 -0.2331
   17DMF     H1  687   0.071   1.510   0.624 -0.2752  1.0388  1.1597
   17DMF     H2  688   0.193   1.477   0.747 -0.2164 -1.4872  1.5201
   17DMF     H3  689   0.013   1.440   0.773  0.6044  1.4456  0.9355
   17DMF     H4  690   0.131   1.371   0.453  2.5906 -0.8494 -0.0824
   17DMF     H5  691   0.006   1.243   0.469  0.3899  1.3095 -0.8453
   17DMF     H6  692   0.182   1.212   0.476 -0.1567 -0.0556 -0.7210
   17DMF     H7  693   0.130   1.088   0.685 -0.3655  0.1573 -0.9065
   18DMF     C1  694   2.842   2.426   1.541  0.0095 -0.2813 -0.1890
   18DMF     N1  695   2.743   2.314   1.565 -0.2713  0.0032  0.2906
   18DMF     C2  696   2.603   2.343   1.525 -0.1420  0.0979 -0.2768
   18DMF     C3  697   2.786   2.185   1.578 -0.2823 -0.0183  0.4204
   18DMF     O1  698   2.904   2.157   1.592 -0.8459  0.1109  0.0080
   18DMF     H1  699   2.849   2.448   1.434 -0.8551 -0.7045 -0.3400
   18DMF     H2  700   2.940   2.394   1.580 -0.0841 -0.0317  0.2450
   18DMF     H3  701   2.823   2.515   1.602 -0.3754 -1.4950  1.4982
   18DMF     H4  702   2.535   2.284   1.587 -0.7808 -0.1361 -1.1942
   18DMF     H5  703   2.586   2.325   1.419  2.0571  0.0307 -0.6530
   18DMF     H6  704   2.584   2.451   1.530 -0.1848  0.0478  0.9509
   18DMF     H7  705   2.712   2.103   1.569  0.9560 -1.0008 -1.0957
   19DMF     C1  706   2.057   2.075   1.535  0.0145  0.2448 -0.1874
   19DMF     N1  707   2.119   2.053   1.402 -0.0501  0.8575  0.2646
   19DMF     C2  708   2.025   2.009   1.294 -0.2321  0.8360  0.2002
   19DMF     C3  709   2.245   2.116   1.360  0.1377  0.7629  0.8591
   19DMF     O1  710   2.329   2.147   1.441 -0.0495  0.1801  0.3565
   19DMF     H1  711   1.992   1.989   1.553  0.8850 -0.3718  0.0601
   19DMF     H2  712   1.989   2.160   1.525 -1.7739 -0.8687  1.9534
   19DMF     H3  713   2.127   2.093   1.618  1.1747 -0.7069 -0.9507
   19DMF     H4  714   1.944   1.941   1.322  0.6246 -0.3485 -0.1661
   19DMF     H5  715   2.079   1.964   1.210 -1.9292 -3.2758  1.1769
   19DMF     H6  716   1.968   2.090   1.247  0.3844 -0.4005 -2.8272
   19DMF     H7  717   2.276   2.105   1.255  1.7310 -2.7427  1.6055
   20DMF     C1  718   0.618   1.334   1.540  0.4228 -0.4549 -0.5377
   20DMF     N1  719   0.472   1.317   1.544 -0.3688 -0.4718  0.2355
   20DMF     C2  720   0.415   1.175   1.549 -0.1034 -0.7429 -0.2272
   20DMF     C3  721   0.388   1.431   1.534 -0.7004 -0.3620 -0.7116
   20DMF     O1  722   0.434   1.542   1.530 -0.6353 -0.5594 -0.0196
   20DMF     H1  723   0.652   1.388   1.629  0.5471  0.1988 -0.9706
   20DMF     H2  724   0.644   1.396   1.453 -2.7971  0.5738 -0.8418
   20DMF     H3  725   0.670   1.240   1.521  0.2761 -0.3749 -1.3577
   20DMF     H4  726   0.306   1.185   1.546  0.0639  1.5814  0.0938
   20DMF     H5  727   0.445   1.115   1.636  2.2758  0.2493 -0.3133
   20DMF     H6  728   0.448   1.116   1.462  0.1017  0.7047 -1.1566
   20DMF     H7  729   0.280   1.408   1.520 -0.8127  0.3434 -1.0025
   21DMF     C1  730   2.623   0.297   0.808  0.0580 -0.7222 -0.4138
   21DMF     N1  731   2.557   0.408   0.741 -0.9452 -0.2283  0.5713
   21DMF     C2  732   2.642   0.511   0.668  0.2345 -0.2698  0.3550
   21DMF     C3  733   2.418   0.413   0.738 -0.1852  0.2402  0.1274
   21DMF     O1  734   2.352   0.321   0.768 -0.5601  0.4007 -0.4046
   21DMF     H1  735   2.693   0.247   0.739 -0.7048 -0.2644 -1.5421
   21DMF     H2  736   2.550   0.223   0.842  0.1714 -0.0003  1.4252
   21DMF     H3  737   2.671   0.339   0.897  1.5325  0.5469 -1.7827
   21DMF     H4  738   2.748   0.489   0.683 -0.1721 -1.9734  0.9078
   21DMF     H5  739   2.625   0.606   0.720 -1.8816 -1.8517  2.6431
   21DMF     H6  740   2.623   0.513   0.560 -1.6162 -0.4711  0.6467
   21DMF     H7  741   2.373   0.510   0.710 -2.5391 -0.9819 -0.4357
   22DMF     C1  742   2.866   0.911   0.682 -0.4862 -0.6278 -0.5387
   22DMF     N1  743   2.929   0.997   0.776  0.2672  0.2610 -0.5464
   22DMF     C2  744   3.070   0.976   0.795 -0.3871 -0.6393  0.2395
   22DMF     C3  745   2.860   1.090   0.856 -0.9228  0.6083  0.1060
   22DMF     O1  746   2.740   1.118   0.847 -0.4849 -0.3134 -0.3848
   22DMF     H1  747   2.916   0.907   0.584 -1.0883 -1.0464 -0.8275
   22DMF     H2  748   2.764   0.946   0.663  0.0736  0.6952 -1.2302
   22DMF     H3  749   2.865   0.810   0.724  0.5280 -0.2548  0.3850
   22DMF     H4  750   3.125   1.071   0.798  0.4001 -1.0943  0.4355
   22DMF     H5  751   3.107   0.902   0.722  1.7733  0.1106  0.5470
   22DMF     H6  752   3.091   0.920   0.887  0.9459  0.7689  0.8143
   22DMF     H7  753   2.932   1.147   0.917  0.8000 -2.6858  1.2779
   23DMF     C1  754   0.477   1.356   0.636 -1.4166  0.2748 -0.6706
   23DMF     N1  755   0.549   1.358   0.765  0.2826 -0.5725  0.1659
   23DMF     C2  756   0.522   1.236   0.856  1.2229 -0.0032  0.4911
   23DMF     C3  757   0.599   1.479   0.816 -0.0932 -0.8687 -0.0336
   23DMF     O1  758   0.593   1.582   0.756 -0.4154 -0.3134  0.8772
   23DMF     H1  759   0.533   1.333   0.544  1.0181  0.0207  0.8421
   23DMF     H2  760   0.416   1.448   0.631 -2.3110 -0.0513  3.0266
   23DMF     H3  761   0.410   1.270   0.643  0.1123 -0.9319 -0.6841
   23DMF     H4  762   0.584   1.260   0.943 -0.0370 -0.7185  1.5926
   23DMF     H5  763   0.536   1.135   0.817  0.4107 -1.9442  4.9403
   23DMF     H6  764   0.415   1.245   0.877  0.8202 -1.1927 -0.9679
   23DMF     H7  765   0.649   1.471   0.914  0.2817  1.1612 -0.0344
   24DMF     C1  766   1.103   1.371   0.783  0.6769 -0.5861 -0.8576
   24DMF     N1  767   0.991   1.459   0.761 -0.5004  0.2288  0.5232
   24DMF     C2  768   0.941   1.536   0.871  0.2933  0.0847 -0.1528
   24DMF     C3  769   0.955   1.495   0.629 -0.0567  0.1133 -0.0648
   24DMF     O1  770   0.999   1.444   0.525  0.1612  0.8383  0.2159
   24DMF     H1  771   1.092   1.315   0.876 -0.7928  1.7164  0.3999
   24DMF     H2  772   1.199   1.422   0.795  0.1813 -0.0770  1.1109
   24DMF     H3  773   1.113   1.302   0.698  0.4014 -0.2383 -1.1748
   24DMF     H4  774   0.854   1.593   0.836  2.0745  1.9746 -1.6223
   24DMF     H5  775   1.021   1.595   0.918  0.9248 -1.2918  0.5415
   24DMF     H6  776   0.917   1.467   0.952  2.7871  0.8448  1.3073
   24DMF     H7  777   0.884   1.580   0.629 -1.3944 -0.9992 -0.7769
   25DMF     C1  778   2.092   0.614   0.123 -0.2263  0.1550  0.3017
   25DMF     N1  779   2.017   0.495   0.136 -0.2107 -0.4376 -0.4618
   25DMF     C2  780   1.943   0.440   0.018 -0.2833  0.0512  0.2872
   25DMF     C3  781   1.998   0.438   0.259 -0.2553  0.2635  0.8283
   25DMF     O1  782   2.028   0.497   0.364  0.4980  0.0381  0.6916
   25DMF     H1  783   2.129   0.610   0.020 -0.4053  1.3979  0.1913
   25DMF     H2  784   2.170   0.609   0.200 -1.7819  1.3460  2.0098
   25DMF     H3  785   2.019   0.694   0.137  0.2003  0.5458  0.2960
   25DMF     H4  786   1.909   0.518  -0.052  1.0406  0.6951  0.3309
   25DMF     H5  787   1.852   0.384   0.043  0.0511 -0.5157  0.2269
   25DMF     H6  788   2.011   0.378  -0.042  0.4589 -1.2984  2.4782
   25DMF     H7  789   1.930   0.351   0.251 -3.3601  2.6111  1.0714
   26DMF     C1  790   2.704   0.065   1.549 -0.4063  0.2859 -0.6659
   26DMF     N1  791   2.819  -0.037   1.524 -0.1874 -0.4006  0.3252
   26DMF     C2  792   2.955   0.004   1.564 -1.1530  0.3283 -0.3330
   26DMF     C3  793   2.807  -0.130   1.418 -0.3435  0.1415 -0.5063
   26DMF     O1  794   2.703  -0.146   1.355 -0.4026 -0.8805 -0.7003
   26DMF     H1  795   2.628   0.003   1.599  1.3981 -0.7159  0.9268
   26DMF     H2  796   2.668   0.107   1.454 -0.3768  0.2984 -0.6715
   26DMF     H3  797   2.734   0.141   1.622  0.4374 -0.5242 -0.1644
   26DMF     H4  798   2.993  -0.075   1.631  1.9408  0.8637 -1.3407
   26DMF     H5  799   2.954   0.100   1.616  0.1568  0.4524 -0.5035
   26DMF     H6  800   3.026   0.011   1.480  1.5767 -0.6629  1.8108
   26DMF     H7  801   2.900  -0.183   1.390 -0.7228  0.2689 -2.0895
   27DMF     C1  802   2.922   1.004   1.575  0.0394  0.2440 -0.0183
   27DMF     N1  803   2.873   1.033   1.431 -0.5562  0.0730  0.6060
   27DMF     C2  804   2.939   0.955   1.318  0.1302  0.0157 -0.2565
   27DMF     C3  805   2.803   1.154   1.398 -0.5287 -0.9456 -0.0470
   27DMF     O1  806   2.766   1.229   1.485 -0.2984 -0.0864  0.0239
   27DMF     H1  807   2.913   1.086   1.647  1.7926 -1.0957  1.7589
   27DMF     H2  808   3.029   0.985   1.585  0.5322  2.4295 -0.7707
   27DMF     H3  809   2.868   0.914   1.607 -1.0143  0.3041 -1.5697
   27DMF     H4  810   3.042   0.992   1.311 -0.4517  1.6038 -0.6785
   27DMF     H5  811   2.895   0.983   1.222  0.8434  0.5832 -0.4282
   27DMF     H6  812   2.935   0.846   1.332  1.1122  0.1781  1.4766
   27DMF     H7  813   2.789   1.162   1.288 -0.4518  1.8398  0.1080
   28DMF     C1  814   0.040   0.179   1.187 -0.2265  0.1685 -0.0493
   28DMF     N1  815   0.169   0.189   1.125  0.1387 -0.7582  0.2402
   28DMF     C2  816   0.286   0.135   1.192  0.3051  0.1568  0.1518
   28DMF     C3  817   0.175   0.247   0.998 -0.3503  0.0711  0.2109
   28DMF     O1  818   0.072   0.290   0.943  0.0649 -0.4413  0.3358
   28DMF     H1  819  -0.037   0.187   1.109  0.2114  0.3111 -0.4673
   28DMF     H2  820   0.028   0.267   1.251 -1.2997  0.7843 -1.0713
   28DMF     H3  821   0.044   0.084   1.242  1.4661  0.7614  0.9005
   28DMF     H4  822   0.360   0.126   1.111 -1.1864 -1.2875 -1.0985
   28DMF     H5  823   0.260   0.037   1.235  2.2837 -0.2987  0.3432
   28DMF     H6  824   0.313   0.198   1.278  1.6372  0.9431 -0.8172
   28DMF     H7  825   0.276   0.258   0.953 -0.7135  3.3124  0.0655
   29DMF     C1  826   2.392   0.901   1.351  0.5154 -0.2171  0.5218
   29DMF     N1  827   2.277   0.839   1.426 -0.5231  0.1789 -0.8667
   29DMF     C2  828   2.265   0.862   1.571  0.0055 -0.0596  0.6082
   29DMF     C3  829   2.187   0.757   1.365  0.2931 -0.1978 -0.2143
   29DMF     O1  830   2.188   0.730   1.248  0.4281 -0.2919  0.4089
   29DMF     H1  831   2.445   0.827   1.290 -1.3761 -1.0777 -0.1055
   29DMF     H2  832   2.463   0.937   1.427 -0.1661 -1.4755  1.7858
   29DMF     H3  833   2.365   0.991   1.295  1.4952 -0.6143 -0.6107
   29DMF     H4  834   2.250   0.767   1.623  1.1212  1.2483  3.4370
   29DMF     H5  835   2.176   0.925   1.586 -0.5584 -1.1435  1.9147
   29DMF     H6  836   2.351   0.922   1.603  0.7395 -0.2637 -0.9786
   29DMF     H7  837   2.114   0.718   1.439  0.2039 -1.5810 -1.0110
   30DMF     C1  838   3.247   2.031   1.284  0.4571  0.0824 -0.0790
   30DMF     N1  839   3.215   2.128   1.392 -0.1180  0.5783 -0.4558
   30DMF     C2  840   3.151   2.248   1.350 -0.0300 -0.0487 -0.6151
   30DMF     C3  841   3.233   2.106   1.525 -0.1196  0.2571 -0.6119
   30DMF     O1  842   3.293   2.008   1.567 -0.4444 -0.5473 -0.1317
   30DMF     H1  843   3.328   1.965   1.317 -1.1444 -1.6790  0.4314
   30DMF     H2  844   3.267   2.094   1.196 -1.9706 -0.6244 -1.1834
   30DMF     H3  845   3.161   1.966   1.267  0.0569  0.7450 -0.6266
   30DMF     H4  846   3.159   2.263   1.242  0.6872  1.0028 -0.4213
   30DMF     H5  847   3.186   2.340   1.398 -0.4244 -1.9204  3.4140
   30DMF     H6  848   3.044   2.233   1.370  0.4383 -0.4278  1.7728
   30DMF     H7  849   3.190   2.185   1.590 -0.0627 -0.3586  0.1742
   31DMF     C1  850   1.767   2.643   0.144  0.2277  0.4531 -0.5227
   31DMF     N1  851   1.738   2.508   0.197  0.1307 -0.4502 -1.3279
   31DMF     C2  852   1.648   2.502   0.312 -0.0449 -0.1596 -0.0909
   31DMF     C3  853   1.752   2.395   0.116  0.4055  0.3361  0.0075
   31DMF     O1  854   1.823   2.406   0.015 -0.2872 -0.0552  0.2779
   31DMF     H1  855   1.853   2.653   0.078  1.1111  0.4535  0.6137
   31DMF     H2  856   1.768   2.716   0.226 -2.4025 -0.4493  0.3603
   31DMF     H3  857   1.676   2.660   0.084 -0.0355 -1.1327 -0.5768
   31DMF     H4  858   1.629   2.606   0.338  1.7490  0.2855 -0.4598
   31DMF     H5  859   1.706   2.445   0.386 -1.3966  1.8340  2.5468
   31DMF     H6  860   1.556   2.444   0.295 -0.0778  0.2630 -1.4142
   31DMF     H7  861   1.718   2.302   0.165  1.0086 -0.3775 -0.8900
   32DMF     C1  862   1.841   0.593   0.754 -0.3552 -0.2062  0.5967
   32DMF     N1  863   1.907   0.491   0.672  0.3316  0.2875  0.7131
   32DMF     C2  864   1.829   0.425   0.570 -0.1524  0.2328  0.5596
   32DMF     C3  865   2.046   0.480   0.677  0.1700  0.1613  0.7335
   32DMF     O1  866   2.117   0.550   0.743 -0.3710  0.0922 -0.5659
   32DMF     H1  867   1.753   0.634   0.703 -0.4816 -1.5983 -0.3297
   32DMF     H2  868   1.916   0.671   0.772  0.1036 -0.1681 -1.3547
   32DMF     H3  869   1.808   0.552   0.850 -0.0245  3.2992  2.2770
   32DMF     H4  870   1.889   0.339   0.539  1.7688  1.4898  0.6811
   32DMF     H5  871   1.812   0.492   0.485 -1.7998 -0.5187  0.2657
   32DMF     H6  872   1.737   0.382   0.613  0.5694 -2.3194 -0.3681
   32DMF     H7  873   2.088   0.395   0.619 -0.7351 -0.8393  1.5223
   33DMF     C1  874   0.951   0.460   3.310 -0.2009 -0.2182 -0.0619
   33DMF     N1  875   1.062   0.399   3.389  0.4420  0.4206 -0.0036
   33DMF     C2  876   1.195   0.386   3.315  0.1106 -0.5477 -0.3016
   33DMF     C3  877   1.051   0.369   3.524 -0.0269 -1.0733  0.4136
   33DMF     O1  878   0.949   0.372   3.588 -0.2889 -0.5963 -0.2726
   33DMF     H1  879   0.947   0.568   3.331 -0.3431 -0.5992  1.9200
   33DMF     H2  880   0.854   0.425   3.347  0.2598  1.1101  2.4777
   33DMF     H3  881   0.971   0.451   3.202  0.1500  1.5422 -0.1652
   33DMF     H4  882   1.224   0.280   3.320 -3.1193 -1.4858 -0.1831
   33DMF     H5  883   1.274   0.425   3.380  1.0558 -2.6197 -0.1652
   33DMF     H6  884   1.204   0.430   3.216 -0.1158  0.7507  0.2410
   33DMF     H7  885   1.149   0.344   3.570  0.2039 -0.6274  0.1688
   34DMF     C1  886   1.276   3.419   0.306  0.7085 -0.7694 -0.2048
   34DMF     N1  887   1.216   3.527   0.225 -0.1534 -0.0066  0.4940
   34DMF     C2  888   1.180   3.637   0.314  0.2262 -0.7401  0.2890
   34DMF     C3  889   1.167   3.502   0.096 -0.6227  1.0532  0.5761
   34DMF     O1  890   1.183   3.390   0.030 -0.0606 -0.3822  0.2423
   34DMF     H1  891   1.385   3.430   0.315  0.4914  0.4572  1.1362
   34DMF     H2  892   1.247   3.329   0.250 -0.5097 -1.9956  2.3082
   34DMF     H3  893   1.227   3.418   0.404 -0.2377 -1.4888 -0.6772
   34DMF     H4  894   1.139   3.727   0.265 -3.4472 -1.5994  1.5845
   34DMF     H5  895   1.274   3.667   0.362  0.3306 -1.0582  0.2815
   34DMF     H6  896   1.099   3.606   0.381  0.2372 -2.6911 -0.5763
   34DMF     H7  897   1.113   3.591   0.058 -1.0524  1.2261  1.5663
   35DMF     C1  898   3.129   1.819   3.795  0.0920 -0.3302  0.3295
   35DMF     N1  899   3.154   1.939   3.722  0.3133  0.0275  0.1126
   35DMF     C2  900   3.263   2.022   3.766 -0.3942 -0.0711 -0.3411
   35DMF     C3  901   3.084   1.977   3.610 -0.1056  1.0796  0.1979
   35DMF     O1  902   2.999   1.901   3.560  0.4395  0.1523  0.9061
   35DMF     H1  903   3.062   1.844   3.878  3.5239  2.1836  2.4521
   35DMF     H2  904   3.219   1.768   3.831 -0.2284 -1.2911 -0.2064
   35DMF     H3  905   3.081   1.741   3.734  1.5333 -0.3356 -0.8461
   35DMF     H4  906   3.300   2.086   3.684  0.0162  1.0225  0.6880
   35DMF     H5  907   3.340   1.961   3.815 -2.3556 -1.4046  1.1512
   35DMF     H6  908   3.218   2.073   3.851 -0.5870 -0.6946 -0.0649
   35DMF     H7  909   3.110   2.080   3.577  0.0107  1.0142  0.0834
   36DMF     C1  910   0.295   1.956   1.148 -0.2583  0.7079  0.1705
   36DMF     N1  911   0.435   1.962   1.193 -0.0606 -0.0851  0.4774
   36DMF     C2  912   0.530   1.848   1.188 -0.5508  0.2543 -0.7147
   36DMF     C3  913   0.486   2.086   1.232 -0.4761  1.0094 -0.0761
   36DMF     O1  914   0.424   2.185   1.231  0.0793 -0.0055  0.0689
   36DMF     H1  915   0.232   1.971   1.236 -3.5115 -1.5027 -1.6611
   36DMF     H2  916   0.275   1.852   1.118  0.9973  0.4313  0.2415
   36DMF     H3  917   0.275   2.035   1.075  0.7153  0.7381 -0.0703
   36DMF     H4  918   0.489   1.762   1.243 -3.2813  2.1306  0.3371
   36DMF     H5  919   0.630   1.871   1.227 -1.3298 -0.1301  1.6398
   36DMF     H6  920   0.529   1.816   1.083 -0.7602 -0.4511 -0.5032
   36DMF     H7  921   0.591   2.084   1.267 -0.7229  0.0439  0.6266
   37DMF     C1  922   1.740   2.539   1.224  0.6239 -0.7274  0.2708
   37DMF     N1  923   1.882   2.556   1.221 -0.1909  0.1529  0.3197
   37DMF     C2  924   1.940   2.686   1.193 -0.0304  0.0377  0.0185
   37DMF     C3  925   1.964   2.444   1.226 -0.8068 -0.0429  0.9207
   37DMF     O1  926   1.932   2.326   1.222  0.1731  0.1661 -0.1288
   37DMF     H1  927   1.693   2.566   1.320  1.9262 -0.0178  0.7179
   37DMF     H2  928   1.711   2.436   1.200  0.0376 -0.7085  0.8847
   37DMF     H3  929   1.696   2.610   1.152 -0.4230  2.0888  3.5466
   37DMF     H4  930   1.916   2.722   1.093 -0.8072 -1.6758 -0.4347
   37DMF     H5  931   2.049   2.683   1.202  0.0369 -0.4758 -0.9620
   37DMF     H6  932   1.900   2.755   1.268 -1.3969  0.6173 -1.2141
   37DMF     H7  933   2.070   2.473   1.233 -0.0059 -2.9387  1.3372
   38DMF     C1  934   1.345   1.140   3.565 -0.4918  0.1296 -0.1024
   38DMF     N1  935   1.222   1.192   3.620  0.5382  0.0293  0.8259
   38DMF     C2  936   1.107   1.224   3.534 -0.0773  0.7697 -0.2030
   38DMF     C3  937   1.215   1.225   3.758 -0.3580  0.1405  0.0078
   38DMF     O1  938   1.310   1.221   3.835 -0.1695 -0.2861  0.1699
   38DMF     H1  939   1.347   1.032   3.583 -0.0256  0.5445  2.4508
   38DMF     H2  940   1.428   1.193   3.614 -0.2650 -0.8733  0.6109
   38DMF     H3  941   1.345   1.163   3.457 -0.0458 -0.2454 -0.1832
   38DMF     H4  942   1.123   1.254   3.430 -0.6898  0.3830 -0.4119
   38DMF     H5  943   1.053   1.304   3.586 -1.3253 -0.6049  0.6437
   38DMF     H6  944   1.043   1.136   3.544  0.6196  0.1988 -0.7500
   38DMF     H7  945   1.116   1.266   3.784  0.3813  1.2591  1.1117
   39DMF     C1  946   1.727   3.430   1.564 -0.1585 -0.3808 -0.3577
   39DMF     N1  947   1.580   3.421   1.560  0.7613  0.5555  0.5697
   39DMF     C2  948   1.514   3.289   1.577  0.1112  0.2196  0.1290
   39DMF     C3  949   1.506   3.535   1.540 -0.0086 -0.0056  0.3339
   39DMF     O1  950   1.561   3.641   1.507  0.0188  0.0933  0.0744
   39DMF     H1  951   1.752   3.501   1.644 -0.0937 -1.2628  0.4301
   39DMF     H2  952   1.764   3.450   1.463 -1.7609 -5.8569 -2.2155
   39DMF     H3  953   1.772   3.336   1.598  0.1822 -0.4217 -0.9270
   39DMF     H4  954   1.579   3.235   1.647 -1.3362 -0.7488  0.7740
   39DMF     H5  955   1.518   3.230   1.485 -2.6101 -0.3651  0.3362
   39DMF     H6  956   1.413   3.297   1.620 -0.0254  1.8773 -0.4758
   39DMF     H7  957   1.397   3.524   1.554 -0.1697 -1.2977 -1.6898
   40DMF     C1  958   1.671   0.790   1.186  0.0361 -1.0464 -0.3308
   40DMF     N1  959   1.774   0.690   1.142  0.4416  0.3289  0.2059
   40DMF     C2  960   1.796   0.573   1.235  0.3509 -0.4692  0.3682
   40DMF     C3  961   1.866   0.728   1.044  1.0119  0.1998  0.5396
   40DMF     O1  962   1.850   0.836   0.980  0.2017  0.5354  0.0046
   40DMF     H1  963   1.690   0.891   1.148  0.1010 -0.8002  0.3485
   40DMF     H2  964   1.678   0.790   1.296  1.7846 -1.9363 -0.4314
   40DMF     H3  965   1.577   0.760   1.139 -0.2982 -0.4901 -0.0313
   40DMF     H4  966   1.876   0.509   1.197  0.7106 -1.7375  3.1127
   40DMF     H5  967   1.700   0.519   1.230  1.4827 -2.6733  1.6685
   40DMF     H6  968   1.811   0.614   1.336  2.3784 -0.7789  0.2126
   40DMF     H7  969   1.946   0.655   1.023 -1.8668 -2.0546 -3.3725
   41DMF     C1  970   0.278   0.563   0.185 -0.3231  0.1240  0.2487
   41DMF     N1  971   0.276   0.665   0.077  0.3060 -0.4293 -0.0842
   41DMF     C2  972   0.261   0.618  -0.067 -0.2426  0.0064  0.2875
   41DMF     C3  973   0.309   0.798   0.105 -0.0421 -0.0273  0.3050
   41DMF     O1  974   0.319   0.851   0.219 -0.3699 -0.6684 -0.0401
   41DMF     H1  975   0.174   0.532   0.198 -1.5540  3.2287 -1.7638
   41DMF     H2  976   0.314   0.606   0.280  1.9068 -3.0004  0.9148
   41DMF     H3  977   0.346   0.482   0.154  0.9821  1.9193 -1.7048
   41DMF     H4  978   0.179   0.673  -0.116 -0.1542  0.0911  0.2333
   41DMF     H5  979   0.254   0.508  -0.072  0.8022 -0.0229 -1.0454
   41DMF     H6  980   0.343   0.640  -0.137  0.7989 -0.5594  1.3103
   41DMF     H7  981   0.331   0.856   0.014  3.3554 -3.6911 -1.3564
   42DMF     C1  982   2.548   0.105   0.508  0.8098 -0.1321  0.1739
   42DMF     N1  983   2.569  -0.019   0.590  0.4322  0.0138 -0.4882
   42DMF     C2  984   2.504  -0.043   0.721  0.3346 -0.2528  0.1885
   42DMF     C3  985   2.669  -0.116   0.566 -0.2597 -0.5875 -0.0101
   42DMF     O1  986   2.736  -0.114   0.464 -0.0907 -0.0347  0.1480
   42DMF     H1  987   2.497   0.087   0.413  0.0800  0.7024  0.4087
   42DMF     H2  988   2.644   0.149   0.479 -0.1065  1.1471 -0.9499
   42DMF     H3  989   2.491   0.183   0.560 -1.1250 -0.3512 -1.5653
   42DMF     H4  990   2.434   0.038   0.748 -1.2341 -0.3860 -3.1179
   42DMF     H5  991   2.585  -0.046   0.794 -0.4443  0.0921  1.0741
   42DMF     H6  992   2.451  -0.139   0.720  0.1644 -0.1619 -0.7639
   42DMF     H7  993   2.683  -0.190   0.646 -0.4929  1.3610  1.8786
   43DMF     C1  994   1.743   2.936   1.007  0.0512  0.4091  0.5287
   43DMF     N1  995   1.773   2.850   0.893 -0.2770  0.3849  0.3591
   43DMF     C2  996   1.692   2.731   0.878  0.2414 -0.2653  0.4442
   43DMF     C3  997   1.865   2.883   0.792 -0.4306 -0.3415 -0.4296
   43DMF     O1  998   1.938   2.978   0.814 -0.0777 -0.4145 -0.1871
   43DMF     H1  999   1.724   2.873   1.094  0.2045  1.4406  1.3283
   43DMF     H2 1000   1.655   2.998   0.985 -0.2760  0.2426  1.3625
   43DMF     H3 1001   1.830   3.000   1.030  0.1843  0.2643  0.4297
   43DMF     H4 1002   1.753   2.640   0.881  0.6611 -0.0275 -0.5569
   43DMF     H5 1003   1.631   2.747   0.788 -0.1430 -0.9829  0.5751
   43DMF     H6 1004   1.623   2.734   0.963  1.7022  2.0647  1.6097
   43DMF     H7 1005   1.866   2.818   0.703 -0.2378 -1.3918  0.3360
   44DMF     C1 1006   1.821   0.875   1.552  0.1969  0.8350 -0.3153
   44DMF     N1 1007   1.814   1.024   1.526  0.7386 -0.1726 -0.2687
   44DMF     C2 1008   1.922   1.108   1.572 -0.5801 -0.3062 -0.1353
   44DMF     C3 1009   1.712   1.089   1.474  0.0137 -0.3398  0.2509
   44DMF     O1 1010   1.611   1.027   1.452  0.1631 -0.2032  0.5461
   44DMF     H1 1011   1.801   0.864   1.659 -0.0776 -0.9294 -0.5394
   44DMF     H2 1012   1.918   0.827   1.531 -1.6139 -2.9647 -0.4296
   44DMF     H3 1013   1.746   0.821   1.493 -0.0190  0.2917  0.4532
   44DMF     H4 1014   1.898   1.191   1.640 -1.3603 -1.0710  0.5263
   44DMF     H5 1015   1.973   1.164   1.493 -1.0101 -0.1718 -0.3169
   44DMF     H6 1016   2.000   1.048   1.622 -0.1657 -0.0745 -0.4954
   44DMF     H7 1017   1.724   1.193   1.438 -0.3304 -0.6711 -0.8440
   45DMF     C1 1018   2.321   1.111   0.343  0.1704  0.2154 -0.2135
   45DMF     N1 1019   2.438   1.019   0.334 -0.2729 -0.0170  0.4636
   45DMF     C2 1020   2.560   1.061   0.396 -0.1893 -0.1967  0.2648
   45DMF     C3 1021   2.416   0.890   0.284 -0.1866 -0.2264  0.5816
   45DMF     O1 1022   2.308   0.858   0.230  0.0104  0.0649 -0.0357
   45DMF     H1 1023   2.238   1.056   0.388 -2.3148  3.3964 -0.6898
   45DMF     H2 1024   2.294   1.125   0.238  0.9499 -0.2229 -0.4818
   45DMF     H3 1025   2.343   1.207   0.392  1.7365 -0.9298  1.3812
   45DMF     H4 1026   2.588   0.988   0.472  3.7792  0.1795 -0.6923
   45DMF     H5 1027   2.561   1.163   0.437  0.4401 -0.9944  2.2893
   45DMF     H6 1028   2.639   1.053   0.320 -0.6013  0.3409 -0.2340
   45DMF     H7 1029   2.503   0.827   0.306  0.6328  1.0481  1.0884
   46DMF     C1 1030   0.665   2.423   1.551 -0.1077 -0.1173  0.1841
   46DMF     N1 1031   0.805   2.461   1.567  0.2639 -0.7207 -0.9434
   46DMF     C2 1032   0.911   2.360   1.592  0.3328  0.4346 -0.1601
   46DMF     C3 1033   0.842   2.603   1.570  0.1839  0.0824 -0.1344
   46DMF     O1 1034   0.771   2.694   1.533  0.4644 -0.4325 -0.5193
   46DMF     H1 1035   0.650   2.376   1.453 -2.5564  0.9488  0.0006
   46DMF     H2 1036   0.598   2.509   1.551 -1.0937 -0.8628 -1.1691
   46DMF     H3 1037   0.639   2.364   1.640  0.1026 -0.3417  0.0970
   46DMF     H4 1038   0.968   2.345   1.500  1.1474  1.2824  0.2036
   46DMF     H5 1039   0.876   2.258   1.613  2.5344 -0.5784 -1.2988
   46DMF     H6 1040   0.985   2.392   1.667  0.8734  2.2249 -1.4473
   46DMF     H7 1041   0.948   2.619   1.597 -0.0012  2.5680 -0.7960
   47DMF     C1 1042   0.084   2.430   1.472  0.2152 -0.5120 -0.4170
   47DMF     N1 1043   0.187   2.327   1.473  0.1730  0.6454 -0.3931
   47DMF     C2 1044   0.155   2.180   1.444  0.0556 -0.2637  0.7701
   47DMF     C3 1045   0.311   2.355   1.523  0.5285  0.2668  0.0189
   47DMF     O1 1046   0.342   2.471   1.560  0.1618 -0.4817 -0.3764
   47DMF     H1 1047  -0.002   2.403   1.409 -1.9097  1.2728  1.5997
   47DMF     H2 1048   0.120   2.518   1.418 -1.1510  0.5617  0.3644
   47DMF     H3 1049   0.055   2.453   1.576 -0.3762  1.5046 -0.9902
   47DMF     H4 1050   0.238   2.121   1.403 -0.3712  0.6283 -1.4228
   47DMF     H5 1051   0.064   2.173   1.384  0.5267 -0.9549  0.1331
   47DMF     H6 1052   0.137   2.141   1.546 -0.0199 -2.1301  0.0589
   47DMF     H7 1053   0.376   2.266   1.526  0.9129  0.5783  1.4982
   48DMF     C1 1054   0.671   2.111   0.207  0.0863  0.8104 -0.3932
   48DMF     N1 1055   0.630   2.198   0.317 -0.0332 -0.0331  1.4610
   48DMF     C2 1056   0.715   2.219   0.428  0.8318  0.1549 -0.0649
   48DMF     C3 1057   0.506   2.263   0.314  0.2179 -0.5849  0.0015
   48DMF     O1 1058   0.437   2.271   0.214  0.1782 -0.5052 -0.0744
   48DMF     H1 1059   0.592   2.048   0.165  1.5937 -1.0201 -0.5587
   48DMF     H2 1060   0.767   2.061   0.227 -0.9853 -1.1339  0.0097
   48DMF     H3 1061   0.693   2.185   0.129 -2.0078  0.3821 -1.4431
   48DMF     H4 1062   0.798   2.283   0.393  0.4315  1.0171  0.5376
   48DMF     H5 1063   0.769   2.128   0.457  0.7534 -0.0317 -0.5023
   48DMF     H6 1064   0.673   2.262   0.519  1.3809 -2.1879  1.3467
   48DMF     H7 1065   0.481   2.325   0.402 -1.6893 -2.2658  0.6906
   49DMF     C1 1066   2.299   0.306   1.123  0.5351 -0.4369 -0.2860
   49DMF     N1 1067   2.398   0.199   1.130  0.2958 -0.2434 -0.7836
   49DMF     C2 1068   2.380   0.091   1.031  0.8649 -0.3733  0.1724
   49DMF     C3 1069   2.503   0.200   1.218 -0.8321 -0.1086 -0.4486
   49DMF     O1 1070   2.520   0.287   1.305 -0.0369 -0.3424  0.2651
   49DMF     H1 1071   2.215   0.276   1.187  0.2129 -1.1462 -1.0311
   49DMF     H2 1072   2.258   0.333   1.025 -1.0120 -2.4623 -0.2308
   49DMF     H3 1073   2.333   0.398   1.172 -0.6670 -0.6398  0.9563
   49DMF     H4 1074   2.472   0.038   1.005  1.7201  1.3273 -0.3296
   49DMF     H5 1075   2.333   0.129   0.939 -1.4451 -0.3818  1.2950
   49DMF     H6 1076   2.307   0.015   1.062 -0.2437 -0.2786 -2.0533
   49DMF     H7 1077   2.567   0.112   1.206  1.5480  1.6923 -1.4099
   50DMF     C1 1078   1.690   1.300   1.077  0.0927 -0.4550 -0.2017
   50DMF     N1 1079   1.652   1.255   0.940 -0.0229  0.0167  0.8182
   50DMF     C2 1080   1.691   1.113   0.905 -0.1223 -0.0319 -0.2088
   50DMF     C3 1081   1.570   1.331   0.852  0.4617 -0.5993 -0.2948
   50DMF     O1 1082   1.540   1.448   0.864 -0.3469  0.1093 -0.6293
   50DMF     H1 1083   1.638   1.394   1.096 -0.4784 -0.7237 -0.4364
   50DMF     H2 1084   1.795   1.331   1.071 -0.6100  2.1263  0.5797
   50DMF     H3 1085   1.666   1.218   1.147  0.3836  0.3915  0.9042
   50DMF     H4 1086   1.651   1.048   0.984 -2.4174  2.1764  0.5045
   50DMF     H5 1087   1.800   1.108   0.904 -0.0733  1.0756 -2.0487
   50DMF     H6 1088   1.647   1.093   0.807 -3.0607  2.2643  0.5538
   50DMF     H7 1089   1.546   1.273   0.761 -0.5899 -1.5213  0.5515
   51DMF     C1 1090   1.300   2.598   0.627  0.1900  0.4395  0.6581
   51DMF     N1 1091   1.284   2.567   0.761 -0.2709  0.0844 -0.7602
   51DMF     C2 1092   1.249   2.683   0.854  0.6987 -0.6214  0.6736
   51DMF     C3 1093   1.331   2.437   0.808  0.0492 -0.6412 -0.0170
   51DMF     O1 1094   1.369   2.352   0.729 -0.6421 -0.0435  0.2892
   51DMF     H1 1095   1.390   2.659   0.613  0.5674 -0.4515 -0.9168
   51DMF     H2 1096   1.210   2.654   0.599  0.3376  0.0891 -0.5394
   51DMF     H3 1097   1.305   2.509   0.562 -0.2826 -0.6908  2.1425
   51DMF     H4 1098   1.271   2.656   0.958  0.2270 -0.7344  0.7460
   51DMF     H5 1099   1.142   2.702   0.842  1.2947  1.3673 -1.6866
   51DMF     H6 1100   1.294   2.777   0.821 -1.1433  0.7630  1.9714
   51DMF     H7 1101   1.328   2.418   0.917  3.1460 -0.4994  0.1399
   52DMF     C1 1102   2.901   1.567   0.086  0.6490 -0.1603  0.0481
   52DMF     N1 1103   2.877   1.646   0.197  0.4851 -0.2464 -0.2893
   52DMF     C2 1104   2.739   1.708   0.201 -0.4247 -0.2210 -0.4290
   52DMF     C3 1105   2.971   1.665   0.296 -0.0420 -0.1726  0.2301
   52DMF     O1 1106   3.076   1.610   0.296 -0.1149  0.5458  0.0192
   52DMF     H1 1107   3.005   1.535   0.076 -0.3551 -3.9679  0.8871
   52DMF     H2 1108   2.884   1.630  -0.002  1.0462  1.9611  1.4488
   52DMF     H3 1109   2.834   1.481   0.098  1.1281 -0.4451  0.7409
   52DMF     H4 1110   2.752   1.816   0.215 -2.0209 -0.4285  3.3628
   52DMF     H5 1111   2.677   1.668   0.283 -1.4491 -0.4496 -1.2950
   52DMF     H6 1112   2.671   1.678   0.119 -1.6031 -1.0258  0.8071
   52DMF     H7 1113   2.935   1.735   0.375 -0.2207 -0.1783  0.1546
   53DMF     C1 1114   3.361   0.310   1.552  0.1435 -0.8430 -0.4782
   53DMF     N1 1115   3.242   0.381   1.506  0.9530 -0.3140 -0.2124
   53DMF     C2 1116   3.237   0.531   1.529 -0.2809  0.0934 -0.5502
   53DMF     C3 1117   3.140   0.318   1.430 -0.4336 -0.8053 -0.2442
   53DMF     O1 1118   3.153   0.203   1.386  0.2321 -0.5653  0.6633
   53DMF     H1 1119   3.396   0.348   1.648 -0.2547  1.6222 -1.2831
   53DMF     H2 1120   3.433   0.314   1.469  0.1659 -0.2090 -0.4289
   53DMF     H3 1121   3.343   0.202   1.562  3.2599 -1.4619 -0.9647
   53DMF     H4 1122   3.178   0.554   1.619 -0.6932  0.3031 -0.8771
   53DMF     H5 1123   3.202   0.590   1.444 -2.4741 -0.1116  0.1843
   53DMF     H6 1124   3.340   0.562   1.551  0.1062 -1.1550 -0.5281
   53DMF     H7 1125   3.048   0.375   1.410 -0.3105 -1.1195 -1.8202
   54DMF     C1 1126   0.251   1.293   3.649 -0.3668  0.2607  0.1825
   54DMF     N1 1127   0.282   1.262   3.790  0.3050  0.1735 -0.2220
   54DMF     C2 1128   0.199   1.149   3.851 -0.3112  0.7754 -0.5282
   54DMF     C3 1129   0.386   1.331   3.865 -0.0044 -0.2441 -0.2980
   54DMF     O1 1130   0.453   1.419   3.820 -0.1845 -0.6405  0.3268
   54DMF     H1 1131   0.333   1.360   3.620 -0.7130  0.5591 -0.1151
   54DMF     H2 1132   0.156   1.344   3.629  1.2653  2.0021 -3.6333
   54DMF     H3 1133   0.251   1.203   3.585 -0.8121  0.5822 -0.2687
   54DMF     H4 1134   0.190   1.170   3.958 -1.5269  1.4708 -0.7672
   54DMF     H5 1135   0.231   1.045   3.839 -1.5113  0.2945  0.3324
   54DMF     H6 1136   0.098   1.150   3.810 -0.9133  2.3451  0.9183
   54DMF     H7 1137   0.388   1.293   3.969 -1.0654  0.9499  0.1764
   55DMF     C1 1138   0.517   2.719   1.139 -0.2181 -0.1328  0.1067
   55DMF     N1 1139   0.417   2.608   1.121 -0.1789  0.1514  0.0666
   55DMF     C2 1140   0.331   2.575   1.236 -0.0032  0.4588  0.0603
   55DMF     C3 1141   0.418   2.530   1.004  0.3815 -0.0236  0.0178
   55DMF     O1 1142   0.480   2.570   0.910 -0.3738  0.4961  0.6035
   55DMF     H1 1143   0.554   2.763   1.046 -1.2719  0.1063 -0.1995
   55DMF     H2 1144   0.599   2.670   1.194  0.0318  0.8769  0.6601
   55DMF     H3 1145   0.470   2.800   1.196  1.0741  2.1687 -2.0308
   55DMF     H4 1146   0.346   2.468   1.257  1.1486  0.8335  1.1787
   55DMF     H5 1147   0.225   2.591   1.212  0.4301  0.9258 -1.6158
   55DMF     H6 1148   0.378   2.625   1.322 -2.4555  0.7929  1.2411
   55DMF     H7 1149   0.351   2.442   1.008 -2.9425  2.4461  0.3316
   56DMF     C1 1150   1.373   3.099   0.095  0.2504 -0.0419  0.3061
   56DMF     N1 1151   1.359   3.006   0.213  0.0543  0.2214  0.8061
   56DMF     C2 1152   1.243   3.019   0.309  0.2838  0.8617  0.3108
   56DMF     C3 1153   1.445   2.896   0.232 -0.0598  0.6420 -0.1098
   56DMF     O1 1154   1.532   2.866   0.155  0.0271  0.3500  0.1222
   56DMF     H1 1155   1.353   3.200   0.133  0.4105 -1.4772  4.4561
   56DMF     H2 1156   1.291   3.080   0.025 -0.0175 -1.1454  0.9200
   56DMF     H3 1157   1.473   3.092   0.050 -0.1928 -2.3978 -0.3498
   56DMF     H4 1158   1.191   2.923   0.322 -0.3425  1.2794  0.8697
   56DMF     H5 1159   1.172   3.091   0.268 -1.9772 -1.7202 -0.4189
   56DMF     H6 1160   1.277   3.057   0.406 -0.2723  1.2924  0.3344
   56DMF     H7 1161   1.428   2.844   0.328 -0.1545  0.6470 -0.1239
   57DMF     C1 1162   0.853   0.105   1.579  0.7529  0.9235 -0.2706
   57DMF     N1 1163   0.946   0.224   1.597 -0.1223  0.1107 -0.1217
   57DMF     C2 1164   0.884   0.354   1.580  0.3930 -0.9833 -0.0235
   57DMF     C3 1165   1.088   0.215   1.579  0.6546 -0.2237 -1.2990
   57DMF     O1 1166   1.151   0.118   1.547  0.1546 -0.1445  0.3616
   57DMF     H1 1167   0.755   0.130   1.622  1.0231 -1.0331  1.5433
   57DMF     H2 1168   0.891   0.013   1.624 -0.9871 -0.5692 -1.7838
   57DMF     H3 1169   0.841   0.089   1.471 -1.3113 -1.7350  0.2944
   57DMF     H4 1170   0.942   0.441   1.613 -0.9978  1.4299 -3.6192
   57DMF     H5 1171   0.787   0.349   1.630  0.4967 -1.1738  0.1588
   57DMF     H6 1172   0.871   0.368   1.472  0.5119 -0.3713  0.0397
   57DMF     H7 1173   1.137   0.311   1.604 -0.5931  0.1887 -0.3855
   58DMF     C1 1174   1.217   2.759   1.244 -0.1158  0.1853 -0.2897
   58DMF     N1 1175   1.276   2.625   1.267 -0.0255  0.8940  0.3612
   58DMF     C2 1176   1.407   2.599   1.200  0.2482 -0.1073  0.6095
   58DMF     C3 1177   1.232   2.549   1.373 -0.5734 -0.0797  0.3001
   58DMF     O1 1178   1.130   2.580   1.430  0.4976 -0.0206  0.0196
   58DMF     H1 1179   1.146   2.775   1.326  1.0870 -0.3999  0.8921
   58DMF     H2 1180   1.163   2.767   1.149  0.1668 -1.5630 -0.6128
   58DMF     H3 1181   1.301   2.829   1.237  1.1026 -1.2390 -0.1009
   58DMF     H4 1182   1.389   2.514   1.133  0.4702  0.7821 -0.5842
   58DMF     H5 1183   1.478   2.579   1.281  1.6120 -0.4724 -0.6491
   58DMF     H6 1184   1.428   2.693   1.147  0.4561 -0.5595 -0.1155
   58DMF     H7 1185   1.295   2.464   1.406  0.5267  1.6560  2.8788
   59DMF     C1 1186   1.023   0.905   0.906 -0.0383 -0.5574  0.5593
   59DMF     N1 1187   0.877   0.889   0.879  0.2538  0.5083  0.1912
   59DMF     C2 1188   0.839   0.899   0.739 -0.4636 -0.0075  0.2979
   59DMF     C3 1189   0.790   0.830   0.973  0.1638  0.1847 -0.5067
   59DMF     O1 1190   0.831   0.813   1.091  0.3428 -0.2955  0.3779
   59DMF     H1 1191   1.071   0.815   0.947 -1.0536 -1.1622  0.4388
   59DMF     H2 1192   1.045   0.990   0.972 -0.5832  0.1509 -0.1620
   59DMF     H3 1193   1.074   0.927   0.812 -2.4707 -1.4342 -1.0049
   59DMF     H4 1194   0.921   0.909   0.667  1.1955 -2.0139  1.8099
   59DMF     H5 1195   0.759   0.972   0.720  0.7567  1.2650 -0.0575
   59DMF     H6 1196   0.796   0.800   0.722  1.5518 -0.3131 -3.6166
   59DMF     H7 1197   0.688   0.813   0.933  0.6165 -0.0482 -1.5716
   60DMF     C1 1198   2.242   0.897   3.144  0.2861  0.0093 -0.5382
   60DMF     N1 1199   2.373   0.910   3.067  0.0582  0.4494 -0.4261
   60DMF     C2 1200   2.453   0.785   3.047 -0.3953  0.1214 -0.1748
   60DMF     C3 1201   2.401   1.031   2.996 -0.2170  0.0090  0.3925
   60DMF     O1 1202   2.329   1.130   3.005  0.7328 -0.2960 -0.3990
   60DMF     H1 1203   2.169   0.847   3.079  0.1840  1.2757 -1.4101
   60DMF     H2 1204   2.206   0.991   3.186  1.2849 -0.8817  2.4527
   60DMF     H3 1205   2.245   0.830   3.231 -0.1296 -1.5681 -1.7065
   60DMF     H4 1206   2.424   0.708   3.119 -0.8634  0.3089 -0.1596
   60DMF     H5 1207   2.555   0.809   3.078 -0.3679 -0.5917  0.2931
   60DMF     H6 1208   2.466   0.739   2.948 -1.6463  1.1537 -0.8404
   60DMF     H7 1209   2.495   1.024   2.939  0.4216  1.5628  1.2207
   61DMF     C1 1210   2.419   0.897   0.744 -0.0200  0.1206 -0.1801
   61DMF     N1 1211   2.301   0.845   0.682 -0.2159  0.5385 -0.0047
   61DMF     C2 1212   2.172   0.900   0.730 -0.0195 -0.2356 -0.3160
   61DMF     C3 1213   2.313   0.748   0.571  0.2424 -0.6440  0.4938
   61DMF     O1 1214   2.419   0.706   0.537  0.0462  0.8511  0.0265
   61DMF     H1 1215   2.395   0.964   0.827 -2.0471 -0.5010 -0.2174
   61DMF     H2 1216   2.472   0.954   0.666 -0.4008  1.4304  0.5011
   61DMF     H3 1217   2.479   0.817   0.787  1.2278  1.1759  0.0551
   61DMF     H4 1218   2.101   0.816   0.727  0.7087 -0.8929  0.6395
   61DMF     H5 1219   2.134   0.973   0.658 -0.1133 -0.3672 -0.3998
   61DMF     H6 1220   2.178   0.942   0.831 -1.3232 -1.3349  0.2414
   61DMF     H7 1221   2.215   0.723   0.527 -0.3415  2.2535  0.0320
   62DMF     C1 1222   1.969   1.570   0.491 -0.0009 -0.3981 -0.1430
   62DMF     N1 1223   1.863   1.524   0.585 -0.3000 -0.0862  0.3935
   62DMF     C2 1224   1.728   1.542   0.551  0.3479  0.0935 -0.5825
   62DMF     C3 1225   1.885   1.461   0.710 -0.4429 -0.2659  0.2937
   62DMF     O1 1226   1.995   1.432   0.749  0.1430 -0.3345 -0.3994
   62DMF     H1 1227   1.990   1.670   0.530 -0.7275 -0.3965  0.2501
   62DMF     H2 1228   1.938   1.578   0.386 -1.1953  0.3002  0.2559
   62DMF     H3 1229   2.063   1.513   0.490  0.4740  0.3226  2.2580
   62DMF     H4 1230   1.677   1.616   0.614 -2.4936 -0.0257 -2.6594
   62DMF     H5 1231   1.667   1.451   0.547 -1.7471  1.3279  1.9926
   62DMF     H6 1232   1.733   1.583   0.450 -1.8346  1.4868 -0.1605
   62DMF     H7 1233   1.789   1.441   0.761 -0.9499 -1.3106 -1.0557
   63DMF     C1 1234   2.069   2.437   1.587 -0.1158  0.6970  0.4687
   63DMF     N1 1235   2.121   2.571   1.578 -0.6944  0.2638 -0.0247
   63DMF     C2 1236   2.272   2.582   1.567 -0.1939 -0.6118  0.5994
   63DMF     C3 1237   2.035   2.687   1.578  0.4175  0.0836  0.0105
   63DMF     O1 1238   1.916   2.681   1.580 -0.3974  0.6529  0.6858
   63DMF     H1 1239   1.968   2.430   1.630  0.5084 -1.5026  1.6513
   63DMF     H2 1240   2.142   2.374   1.638 -2.0258 -2.0696 -0.0996
   63DMF     H3 1241   2.055   2.398   1.486  0.0251 -0.3894  0.8641
   63DMF     H4 1242   2.300   2.546   1.467  0.4138  0.1357  0.4978
   63DMF     H5 1243   2.312   2.528   1.653 -0.6670 -0.0683  1.1624
   63DMF     H6 1244   2.287   2.690   1.576 -1.3522 -0.5025  1.2504
   63DMF     H7 1245   2.087   2.784   1.577 -0.9783  0.8525  0.6612
   64DMF     C1 1246   2.823   0.225   1.165 -0.2594  0.2016 -0.5753
   64DMF     N1 1247   2.935   0.250   1.066 -0.0829  0.1762 -0.8189
   64DMF     C2 1248   3.055   0.328   1.116 -0.1378 -0.2209 -0.0815
   64DMF     C3 1249   2.948   0.174   0.955 -0.4502 -0.5099 -0.4632
   64DMF     O1 1250   2.857   0.095   0.921 -0.0859  0.2972 -0.0785
   64DMF     H1 1251   2.853   0.272   1.260  0.9323  1.1860 -1.4164
   64DMF     H2 1252   2.804   0.117   1.166 -1.1888  0.3583  0.0375
   64DMF     H3 1253   2.730   0.261   1.120 -1.6494 -0.9008  1.3449
   64DMF     H4 1254   3.128   0.251   1.144  0.3845  0.1602 -0.3754
   64DMF     H5 1255   3.037   0.393   1.202  0.6009 -0.7264  0.4662
   64DMF     H6 1256   3.097   0.387   1.034 -1.7913 -0.5799 -1.2064
   64DMF     H7 1257   3.038   0.199   0.895 -0.3400 -0.4767 -0.2852
   65DMF     C1 1258   3.354   1.377   0.064 -0.0835  0.0472  0.8032
   65DMF     N1 1259   3.247   1.302   0.001  0.3227  0.3486 -0.1149
   65DMF     C2 1260   3.200   1.351  -0.131  0.8235  0.4253 -0.0456
   65DMF     C3 1261   3.167   1.211   0.076 -0.6755  0.3276  0.6439
   65DMF     O1 1262   3.200   1.179   0.186 -0.0944 -0.5488  0.0688
   65DMF     H1 1263   3.405   1.438  -0.012  1.2084 -0.2279  1.4325
   65DMF     H2 1264   3.418   1.308   0.121  3.1732 -0.6587 -3.4648
   65DMF     H3 1265   3.295   1.440   0.132 -3.3415 -2.2344  0.1764
   65DMF     H4 1266   3.106   1.299  -0.151  0.3772  1.2516 -0.1123
   65DMF     H5 1267   3.275   1.337  -0.210 -1.9224  2.8693 -3.2311
   65DMF     H6 1268   3.186   1.459  -0.135  0.0831  0.3562  0.6265
   65DMF     H7 1269   3.072   1.179   0.030 -0.0988 -1.7904  0.8674
   66DMF     C1 1270   1.054   0.711   0.303 -0.1682  0.1655 -0.2096
   66DMF     N1 1271   0.936   0.630   0.277  0.4224  0.5842  0.7083
   66DMF     C2 1272   0.932   0.545   0.160  0.2680 -1.1042 -0.3134
   66DMF     C3 1273   0.844   0.613   0.377 -0.4979 -0.5543 -0.0549
   66DMF     O1 1274   0.843   0.681   0.474  0.0148  0.4012  0.5084
   66DMF     H1 1275   1.127   0.679   0.228 -0.7669 -0.7522 -0.4112
   66DMF     H2 1276   1.085   0.687   0.406 -1.2503  2.5178  0.7079
   66DMF     H3 1277   1.036   0.819   0.299 -3.1433 -0.1868  1.9298
   66DMF     H4 1278   0.993   0.574   0.073  0.7868 -0.4587  0.2635
   66DMF     H5 1279   0.828   0.549   0.124  0.8042 -0.1870 -1.8018
   66DMF     H6 1280   0.965   0.444   0.186 -0.0683 -0.1834  4.0572
   66DMF     H7 1281   0.767   0.538   0.350 -0.8148 -0.2863  0.1076
   67DMF     C1 1282   2.510   1.345   0.767  0.0280  0.5061 -0.2880
   67DMF     N1 1283   2.370   1.344   0.731  0.6575 -0.5332 -0.8509
   67DMF     C2 1284   2.287   1.228   0.758  0.0780  0.2950  0.1624
   67DMF     C3 1285   2.306   1.463   0.676 -0.6003  0.3722  0.1897
   67DMF     O1 1286   2.374   1.561   0.641 -0.2779 -0.3204  0.7839
   67DMF     H1 1287   2.531   1.252   0.821 -0.0828 -0.7567 -2.3433
   67DMF     H2 1288   2.526   1.437   0.824  0.1642  0.9382 -1.0125
   67DMF     H3 1289   2.566   1.353   0.672 -0.3667  0.5020 -0.5197
   67DMF     H4 1290   2.181   1.245   0.733 -0.2549 -1.4574  0.3159
   67DMF     H5 1291   2.297   1.185   0.858  3.3399 -1.0822 -0.6890
   67DMF     H6 1292   2.315   1.154   0.682  0.1181  0.2037  0.2673
   67DMF     H7 1293   2.201   1.450   0.644 -0.6373 -1.7093  1.0921
   68DMF     C1 1294   0.739   0.190   0.177 -0.0608  0.4759 -0.8479
   68DMF     N1 1295   0.673   0.193   0.048  0.0023 -0.8777  0.1686
   68DMF     C2 1296   0.698   0.084  -0.051 -0.1117 -1.0565 -0.6869
   68DMF     C3 1297   0.581   0.297   0.017 -0.0642 -0.1298 -0.5289
   68DMF     O1 1298   0.565   0.397   0.089  0.1274  0.2280  0.2640
   68DMF     H1 1299   0.669   0.166   0.257  3.1746 -0.4817  1.8094
   68DMF     H2 1300   0.778   0.288   0.205 -2.3747  1.4024 -0.7508
   68DMF     H3 1301   0.816   0.112   0.182 -0.7589 -0.1360  0.3401
   68DMF     H4 1302   0.698   0.123  -0.153  0.0808 -0.3012 -0.4061
   68DMF     H5 1303   0.627   0.002  -0.034 -2.0070  1.0396  2.0236
   68DMF     H6 1304   0.798   0.043  -0.031  0.6519  1.1231  0.1948
   68DMF     H7 1305   0.510   0.278  -0.066  1.7593  1.1868 -2.4522
   69DMF     C1 1306   0.625   1.012   3.363 -0.0124 -0.0151 -0.3833
   69DMF     N1 1307   0.554   1.050   3.488  0.1292 -0.4322 -0.0660
   69DMF     C2 1308   0.604   1.171   3.560  0.0870 -0.5178  0.1898
   69DMF     C3 1309   0.463   0.962   3.548  0.0835 -0.2584 -0.2342
   69DMF     O1 1310   0.434   0.854   3.497  0.1219  0.4096 -0.5370
   69DMF     H1 1311   0.704   1.079   3.327  0.1558  0.4798  0.8901
   69DMF     H2 1312   0.545   1.009   3.288  0.2235  1.2503 -0.7099
   69DMF     H3 1313   0.671   0.915   3.386  0.3946  0.4188  0.6521
   69DMF     H4 1314   0.526   1.228   3.611  0.9798 -0.1568  1.1721
   69DMF     H5 1315   0.646   1.241   3.487 -0.5157  1.5102  1.7469
   69DMF     H6 1316   0.684   1.146   3.631  1.9917  1.6925 -1.1206
   69DMF     H7 1317   0.419   0.998   3.643 -1.7807 -1.5654 -0.5769
   70DMF     C1 1318   1.467   2.084   0.913  0.2829 -0.2851 -0.2696
   70DMF     N1 1319   1.591   2.096   1.004  0.3767  1.2507  0.0992
   70DMF     C2 1320   1.697   1.996   0.989  0.5404  0.2276  0.2395
   70DMF     C3 1321   1.605   2.196   1.103 -0.1593 -0.3719 -0.1722
   70DMF     O1 1322   1.509   2.268   1.128 -0.5963 -0.1517 -0.0989
   70DMF     H1 1323   1.472   2.156   0.831  2.8643  1.8128  1.6112
   70DMF     H2 1324   1.376   2.115   0.966  0.0056  0.4595 -1.1733
   70DMF     H3 1325   1.460   1.982   0.872  0.0588 -1.3218  2.2626
   70DMF     H4 1326   1.666   1.907   0.935  1.3960 -0.5084  0.9424
   70DMF     H5 1327   1.734   1.963   1.087  0.6701 -1.0591 -0.2409
   70DMF     H6 1328   1.772   2.051   0.931 -1.1136 -0.7537 -2.9349
   70DMF     H7 1329   1.706   2.195   1.148 -0.6892  1.7193  1.0949
   71DMF     C1 1330   1.180   0.371   0.864  0.4535  0.0670 -0.3853
   71DMF     N1 1331   1.131   0.458   0.756 -0.1436 -0.4092  0.0861
   71DMF     C2 1332   1.056   0.577   0.784 -0.0305 -0.2905 -0.9390
   71DMF     C3 1333   1.145   0.422   0.619 -0.2818 -0.1849  0.4614
   71DMF     O1 1334   1.205   0.317   0.591  0.0768 -0.3928 -0.6105
   71DMF     H1 1335   1.111   0.285   0.864  1.9111 -1.1276 -1.0531
   71DMF     H2 1336   1.180   0.422   0.961 -0.8940 -3.1421  1.4010
   71DMF     H3 1337   1.279   0.329   0.844  1.4608  1.2258  1.9540
   71DMF     H4 1338   1.122   0.664   0.785 -0.1825 -0.1867  0.6334
   71DMF     H5 1339   1.017   0.566   0.886 -1.5552  2.4466 -1.1964
   71DMF     H6 1340   0.976   0.589   0.710  0.2788 -2.3027 -1.6623
   71DMF     H7 1341   1.095   0.500   0.558  1.6311  1.9552  1.6088
   72DMF     C1 1342   3.144   2.168   0.376 -0.3738 -0.2274 -0.5343
   72DMF     N1 1343   3.102   2.281   0.461 -0.0449  1.1953  0.3344
   72DMF     C2 1344   3.032   2.405   0.401  0.3365  0.5658  0.0440
   72DMF     C3 1345   3.141   2.275   0.601  0.3886 -0.4206 -0.0299
   72DMF     O1 1346   3.202   2.179   0.650  1.0396  0.2528 -0.2808
   72DMF     H1 1347   3.109   2.189   0.274 -1.3050  0.1451 -0.1491
   72DMF     H2 1348   3.107   2.073   0.416  0.1096  0.9190  2.7581
   72DMF     H3 1349   3.253   2.178   0.368 -0.3829  1.7788  1.4997
   72DMF     H4 1350   2.924   2.405   0.423 -0.2144 -3.5001 -2.2326
   72DMF     H5 1351   3.056   2.406   0.294 -1.3196 -2.0274 -0.3807
   72DMF     H6 1352   3.080   2.498   0.435  0.5503  0.4986 -0.0754
   72DMF     H7 1353   3.103   2.361   0.659  0.9345  0.8064 -1.4551
   73DMF     C1 1354   3.107   0.352   0.381  0.4389 -0.4374  0.5530
   73DMF     N1 1355   3.066   0.229   0.448 -0.1032  0.3708 -0.5191
   73DMF     C2 1356   3.162   0.116   0.455  0.8998 -0.9113 -0.5748
   73DMF     C3 1357   2.947   0.218   0.508  0.0773 -0.4452  0.1914
   73DMF     O1 1358   2.867   0.310   0.519 -0.1365 -0.2119  0.6169
   73DMF     H1 1359   3.052   0.360   0.286  1.1418  0.3726  0.2060
   73DMF     H2 1360   3.215   0.340   0.365  0.0760 -0.4168 -2.2153
   73DMF     H3 1361   3.100   0.445   0.439 -0.9667 -0.1759 -0.0072
   73DMF     H4 1362   3.244   0.138   0.525 -0.2467  2.9002 -0.2887
   73DMF     H5 1363   3.186   0.079   0.355 -1.0848  0.1061 -1.4657
   73DMF     H6 1364   3.105   0.042   0.511  0.8896 -2.4228 -2.5475
   73DMF     H7 1365   2.926   0.120   0.554 -1.2734  0.7124  2.1679
   74DMF     C1 1366   1.363   0.915   1.070  0.2225  0.1002  0.5105
   74DMF     N1 1367   1.353   1.059   1.077 -0.1476 -0.0718  0.3647
   74DMF     C2 1368   1.342   1.121   1.211 -0.9707 -0.6223 -0.3889
   74DMF     C3 1369   1.342   1.137   0.963  0.0852 -0.2204  0.1775
   74DMF     O1 1370   1.329   1.086   0.851  0.5493  0.1561 -0.3620
   74DMF     H1 1371   1.274   0.868   1.026  1.9252  0.6253 -3.7131
   74DMF     H2 1372   1.386   0.872   1.168  0.1916 -0.9953  0.0510
   74DMF     H3 1373   1.445   0.890   1.002  0.3301  0.0611  0.6561
   74DMF     H4 1374   1.354   1.229   1.196  0.2804 -0.3970  2.0442
   74DMF     H5 1375   1.422   1.084   1.275 -0.0518  1.5073 -0.2892
   74DMF     H6 1376   1.245   1.118   1.262  0.1240 -2.2275  1.6833
   74DMF     H7 1377   1.350   1.246   0.982 -1.4487 -0.1040  0.2638
   75DMF     C1 1378   2.273   2.248   0.284 -0.1644 -0.1530 -0.2800
   75DMF     N1 1379   2.136   2.304   0.283 -0.0298 -0.3860  0.3046
   75DMF     C2 1380   2.022   2.208   0.270  0.6116 -0.8275  0.3818
   75DMF     C3 1381   2.105   2.444   0.287 -0.4644  0.4673  0.5104
   75DMF     O1 1382   2.187   2.532   0.273  0.0708 -0.7352  0.2516
   75DMF     H1 1383   2.332   2.304   0.356 -0.2673  2.1767 -1.9389
   75DMF     H2 1384   2.314   2.265   0.183 -0.6317 -1.4337 -0.6977
   75DMF     H3 1385   2.259   2.143   0.312  1.2250 -0.5100 -0.8840
   75DMF     H4 1386   2.017   2.173   0.166 -0.3483 -2.3504  0.9216
   75DMF     H5 1387   1.925   2.252   0.297  0.8809  0.5800 -0.8487
   75DMF     H6 1388   2.041   2.121   0.333  1.5961 -1.0942 -0.2733
   75DMF     H7 1389   1.997   2.459   0.305 -1.0615  1.3364 -3.3179
   76DMF     C1 1390   1.430   0.552   0.616 -0.0391  0.4168 -0.7285
   76DMF     N1 1391   1.426   0.673   0.697 -0.0138  0.3968  0.3789
   76DMF     C2 1392   1.436   0.657   0.843  0.2910  0.2291 -0.0609
   76DMF     C3 1393   1.450   0.791   0.638  0.0059 -0.5627  0.2459
   76DMF     O1 1394   1.462   0.804   0.518  0.6970 -0.6562 -0.0360
   76DMF     H1 1395   1.531   0.548   0.572  0.6739 -3.2244  1.0414
   76DMF     H2 1396   1.363   0.559   0.530 -0.3604  1.7028 -0.3941
   76DMF     H3 1397   1.412   0.464   0.679  3.6924  0.4590  0.5620
   76DMF     H4 1398   1.419   0.555   0.879  0.9337  0.1633  0.0755
   76DMF     H5 1399   1.361   0.723   0.888  0.0969 -0.6193  0.8725
   76DMF     H6 1400   1.535   0.686   0.882  1.3529 -3.7804  0.4571
   76DMF     H7 1401   1.460   0.877   0.707  0.5521 -1.3790  1.1830
   77DMF     C1 1402   2.137   1.721   0.879 -0.0003 -0.2747 -0.3940
   77DMF     N1 1403   2.212   1.846   0.896 -0.2581 -0.2765  0.2990
   77DMF     C2 1404   2.360   1.839   0.883  0.1033  0.4165 -0.1782
   77DMF     C3 1405   2.150   1.958   0.943  0.1444  0.1568 -0.7402
   77DMF     O1 1406   2.026   1.955   0.965  0.0451  0.0376 -0.0240
   77DMF     H1 1407   2.103   1.731   0.775  1.0375 -0.0854 -0.7266
   77DMF     H2 1408   2.061   1.722   0.957 -0.4746  2.4279 -0.8376
   77DMF     H3 1409   2.207   1.636   0.882 -0.9960 -1.0581  0.6343
   77DMF     H4 1410   2.405   1.928   0.928  1.0864 -0.3383  0.3629
   77DMF     H5 1411   2.387   1.840   0.776 -0.1884 -0.1866 -0.2608
   77DMF     H6 1412   2.396   1.750   0.936  2.0418  0.9884 -0.5022
   77DMF     H7 1413   2.215   2.044   0.967 -1.2149  0.3283  2.4873
   78DMF     C1 1414   0.962   2.918   0.704  0.0962 -0.5294 -0.2155
   78DMF     N1 1415   0.830   2.865   0.756  0.1782 -0.0296  0.5120
   78DMF     C2 1416   0.706   2.903   0.686  0.1801  0.8926  0.1216
   78DMF     C3 1417   0.818   2.802   0.874  0.7388  0.1660  0.3843
   78DMF     O1 1418   0.910   2.769   0.946 -0.0679  0.3691  0.0926
   78DMF     H1 1419   0.961   3.018   0.661 -0.8737 -1.2727 -1.9797
   78DMF     H2 1420   0.986   2.845   0.625 -1.2144 -1.4965  0.2702
   78DMF     H3 1421   1.042   2.913   0.779  0.2389 -1.1713 -0.4081
   78DMF     H4 1422   0.736   2.965   0.601  0.8659  1.0098  0.4461
   78DMF     H5 1423   0.642   2.960   0.754  1.5217 -0.1261  2.2944
   78DMF     H6 1424   0.662   2.812   0.643 -0.1397  1.4393 -0.7219
   78DMF     H7 1425   0.711   2.786   0.893  0.9662  1.6716  3.2203
   79DMF     C1 1426   2.430   2.520   1.208  0.1972 -0.5949 -0.5044
   79DMF     N1 1427   2.451   2.441   1.090  0.2470  0.7788 -0.0527
   79DMF     C2 1428   2.592   2.458   1.031 -0.2486 -0.0472 -0.5224
   79DMF     C3 1429   2.353   2.357   1.038  0.0636  0.5381  0.1726
   79DMF     O1 1430   2.235   2.361   1.075 -0.7706  0.0778 -0.9279
   79DMF     H1 1431   2.370   2.464   1.281  1.6496 -0.9150  0.4693
   79DMF     H2 1432   2.375   2.606   1.167 -0.3284 -2.2906 -3.4611
   79DMF     H3 1433   2.525   2.538   1.260 -1.1677  0.7832  1.6341
   79DMF     H4 1434   2.598   2.406   0.934  0.3946  1.6319 -1.4045
   79DMF     H5 1435   2.674   2.419   1.093 -1.8316  1.5146  2.6617
   79DMF     H6 1436   2.625   2.560   1.008 -0.6511 -0.3948 -2.8055
   79DMF     H7 1437   2.383   2.294   0.952 -0.8424  1.2112 -0.6510
   80DMF     C1 1438   2.405   1.437   1.077 -0.4282 -0.2136 -0.2845
   80DMF     N1 1439   2.549   1.405   1.114 -0.1934 -0.2142 -0.2632
   80DMF     C2 1440   2.579   1.261   1.120 -0.0115 -0.7406  0.2112
   80DMF     C3 1441   2.645   1.514   1.131  0.0780  0.2527  0.5645
   80DMF     O1 1442   2.631   1.633   1.107 -0.2451  0.0508 -0.3806
   80DMF     H1 1443   2.361   1.349   1.029  0.6052 -1.4826  1.0548
   80DMF     H2 1444   2.398   1.510   0.996 -0.1234  0.4096  0.2453
   80DMF     H3 1445   2.346   1.477   1.161  2.0672  0.0411  1.3974
   80DMF     H4 1446   2.688   1.251   1.120 -0.2226 -3.4377  0.0086
   80DMF     H5 1447   2.532   1.206   1.037  0.5944 -0.6064 -0.2246
   80DMF     H6 1448   2.540   1.220   1.214 -2.2088  1.2037  0.1864
   80DMF     H7 1449   2.743   1.480   1.170  0.0741  0.6861  0.9561
   81DMF     C1 1450   2.450   2.796   0.863  0.9212 -0.2337 -0.3952
   81DMF     N1 1451   2.309   2.841   0.845  0.1315  0.0767  0.0499
   81DMF     C2 1452   2.204   2.766   0.899 -0.2211  0.4675  0.0008
   81DMF     C3 1453   2.281   2.973   0.809  0.0054  0.6277 -0.5419
   81DMF     O1 1454   2.371   3.039   0.769  0.3312  0.3125  0.1985
   81DMF     H1 1455   2.436   2.688   0.854 -0.9139 -0.0197 -0.3683
   81DMF     H2 1456   2.478   2.825   0.965  2.3542  1.6530 -1.3027
   81DMF     H3 1457   2.519   2.827   0.784  1.8635 -1.2807  0.0086
   81DMF     H4 1458   2.168   2.814   0.991 -0.6254  0.6925 -0.2719
   81DMF     H5 1459   2.229   2.661   0.918  0.6744  0.6173 -0.3451
   81DMF     H6 1460   2.121   2.775   0.828  1.9407 -0.7173 -2.7450
   81DMF     H7 1461   2.176   3.006   0.822 -0.0522  1.0771 -2.1345
   82DMF     C1 1462   0.158   2.265   1.028 -0.3209 -0.5093  0.4936
   82DMF     N1 1463   0.127   2.264   0.890 -0.1142  0.8006  0.0688
   82DMF     C2 1464   0.085   2.129   0.823  0.3186 -0.8259 -0.0390
   82DMF     C3 1465   0.141   2.376   0.808 -0.0784 -0.2801  0.4348
   82DMF     O1 1466   0.157   2.487   0.855  0.5684  0.6049 -0.2596
   82DMF     H1 1467   0.136   2.353   1.090 -2.2440 -0.0514 -0.8075
   82DMF     H2 1468   0.264   2.241   1.043 -1.0177 -3.1759  1.4005
   82DMF     H3 1469   0.096   2.185   1.071 -0.8145 -0.8137 -0.7589
   82DMF     H4 1470   0.061   2.044   0.888  1.9426 -1.2486  0.0394
   82DMF     H5 1471   0.165   2.101   0.753  0.8319 -0.8292  0.5442
   82DMF     H6 1472  -0.006   2.145   0.766  1.3116 -1.6327 -1.8827
   82DMF     H7 1473   0.125   2.350   0.702 -0.8766 -0.2646  0.5474
   83DMF     C1 1474   2.576   2.784   1.445 -0.5194  0.1303  0.3511
   83DMF     N1 1475   2.678   2.886   1.420  0.5114  0.3768 -0.0054
   83DMF     C2 1476   2.765   2.928   1.529  0.1498  0.1594  0.2450
   83DMF     C3 1477   2.705   2.930   1.294 -0.0247  0.5040  0.3712
   83DMF     O1 1478   2.645   2.892   1.194 -1.0918  0.4203  0.0364
   83DMF     H1 1479   2.575   2.722   1.354  1.4257  1.0054 -0.2831
   83DMF     H2 1480   2.472   2.818   1.447 -0.5377  0.2699 -1.9921
   83DMF     H3 1481   2.591   2.717   1.531  0.1625  1.3147  1.1581
   83DMF     H4 1482   2.845   2.858   1.555  0.7657  0.0912 -1.7035
   83DMF     H5 1483   2.702   2.948   1.616  0.9868 -0.3176  0.9632
   83DMF     H6 1484   2.824   3.017   1.502 -1.0670  0.6880 -0.7528
   83DMF     H7 1485   2.779   3.012   1.285  0.5418  0.2853  2.6503
   84DMF     C1 1486   3.069   0.556   0.811 -0.3046  0.6670  0.1117
   84DMF     N1 1487   3.210   0.517   0.803  0.0896 -0.4837 -0.4119
   84DMF     C2 1488   3.250   0.431   0.691  0.8898  0.0936 -0.9251
   84DMF     C3 1489   3.295   0.557   0.907 -0.7875 -0.2513 -0.9239
   84DMF     O1 1490   3.251   0.626   0.995  0.0505  0.3975 -0.0889
   84DMF     H1 1491   3.052   0.648   0.753 -0.2461  0.4473 -0.2521
   84DMF     H2 1492   3.036   0.567   0.915 -3.0183  0.7830 -0.7076
   84DMF     H3 1493   3.006   0.477   0.770  3.2555 -1.8313 -0.7945
   84DMF     H4 1494   3.346   0.379   0.707 -1.1569 -3.5015  0.1809
   84DMF     H5 1495   3.276   0.492   0.603  0.8881  3.1117  1.0725
   84DMF     H6 1496   3.182   0.349   0.667  1.1074 -1.2171  2.6830
   84DMF     H7 1497   3.399   0.518   0.907 -1.0363 -0.9269  0.3505
   85DMF     C1 1498   1.378   1.722   0.991  0.2774 -1.0224 -0.3253
   85DMF     N1 1499   1.446   1.674   1.107  0.2422  0.1427  0.5699
   85DMF     C2 1500   1.572   1.729   1.142 -0.3894  0.7096 -0.1382
   85DMF     C3 1501   1.407   1.553   1.162 -0.3008 -1.1495  0.2197
   85DMF     O1 1502   1.309   1.483   1.133  0.2878 -0.7496  0.1202
   85DMF     H1 1503   1.454   1.729   0.912  1.1810 -1.3310  0.5034
   85DMF     H2 1504   1.343   1.825   1.005  1.4649 -0.8032  1.1888
   85DMF     H3 1505   1.299   1.655   0.956  0.2040 -0.7261 -0.7322
   85DMF     H4 1506   1.657   1.681   1.091 -1.0414  0.7281 -1.2542
   85DMF     H5 1507   1.591   1.718   1.249 -0.1519 -0.4357 -0.2825
   85DMF     H6 1508   1.567   1.836   1.121  2.1175  1.3276  2.2016
   85DMF     H7 1509   1.472   1.531   1.248  0.6779  1.1010  0.0788
   86DMF     C1 1510   2.595   2.388   3.522 -0.5398 -0.1794 -0.2313
   86DMF     N1 1511   2.604   2.450   3.657 -0.3000  0.3929  0.2977
   86DMF     C2 1512   2.483   2.454   3.743  0.3204  0.9963 -0.1886
   86DMF     C3 1513   2.730   2.496   3.711  0.7002  0.5023 -0.0641
   86DMF     O1 1514   2.832   2.489   3.647 -0.2187 -0.7452 -0.1094
   86DMF     H1 1515   2.690   2.333   3.513  0.4965  1.1896  1.7862
   86DMF     H2 1516   2.579   2.458   3.440 -1.2868 -0.1742 -0.0822
   86DMF     H3 1517   2.511   2.318   3.521 -1.8071  1.2693  1.9413
   86DMF     H4 1518   2.400   2.392   3.707 -0.4257  1.3748  0.8723
   86DMF     H5 1519   2.448   2.557   3.732  1.1566  1.3312  0.2611
   86DMF     H6 1520   2.510   2.436   3.848 -1.2331 -0.9474 -0.0921
   86DMF     H7 1521   2.730   2.525   3.818  0.9905  0.4378 -0.0478
   87DMF     C1 1522   3.336   1.051   3.521 -0.1829 -0.3049 -0.0601
   87DMF     N1 1523   3.253   0.974   3.617  0.2567 -0.0591 -0.1663
   87DMF     C2 1524   3.109   0.950   3.589  0.0276 -0.0207  0.2409
   87DMF     C3 1525   3.318   0.916   3.726  0.2835  0.9870 -0.3742
   87DMF     O1 1526   3.441   0.924   3.740  0.1584 -0.2265  0.3051
   87DMF     H1 1527   3.281   1.100   3.439  0.4088 -0.0537 -0.3105
   87DMF     H2 1528   3.429   0.999   3.492 -2.1333 -3.7452 -0.4109
   87DMF     H3 1529   3.370   1.137   3.580  1.6848 -0.3424 -1.0208
   87DMF     H4 1530   3.106   0.845   3.558 -1.5497  0.1947 -0.3996
   87DMF     H5 1531   3.065   1.025   3.522  0.4672  0.7118  0.7594
   87DMF     H6 1532   3.056   0.954   3.686 -0.6283  0.8296 -0.1393
   87DMF     H7 1533   3.250   0.848   3.779  0.2797  0.7230 -0.7122
   88DMF     C1 1534   3.291   1.133   1.578  0.0563 -0.1922 -0.0677
   88DMF     N1 1535   3.278   1.255   1.506 -0.3232 -0.0750  0.0057
   88DMF     C2 1536   3.136   1.278   1.464  0.4176  0.5119 -0.6260
   88DMF     C3 1537   3.388   1.322   1.447 -0.3378  0.0199 -0.2437
   88DMF     O1 1538   3.501   1.288   1.471  0.6023 -0.3131  0.1661
   88DMF     H1 1539   3.293   1.047   1.510 -1.4707  0.4104 -0.9168
   88DMF     H2 1540   3.205   1.116   1.644  0.2981  0.2596  0.3603
   88DMF     H3 1541   3.384   1.137   1.636 -0.6752 -1.1036  1.2109
   88DMF     H4 1542   3.080   1.184   1.459 -0.7816  1.2398 -1.0068
   88DMF     H5 1543   3.130   1.327   1.366  0.8784 -0.7453 -1.2896
   88DMF     H6 1544   3.092   1.345   1.539 -1.2151 -1.9070  0.6302
   88DMF     H7 1545   3.367   1.414   1.391 -2.8337 -0.2646  0.1697
   89DMF     C1 1546   3.299   3.066   3.257 -0.3184  0.1873 -0.4167
   89DMF     N1 1547   3.207   2.967   3.203  0.4760  0.5200 -0.1183
   89DMF     C2 1548   3.128   2.889   3.302  0.4969 -0.0547 -0.4386
   89DMF     C3 1549   3.191   2.936   3.065  0.6967 -0.1584  0.3219
   89DMF     O1 1550   3.245   3.002   2.981 -0.0463 -0.4643 -0.2662
   89DMF     H1 1551   3.261   3.108   3.350  1.3439  0.7852  0.0105
   89DMF     H2 1552   3.327   3.139   3.181 -2.2065 -0.9740 -2.2990
   89DMF     H3 1553   3.389   3.015   3.295 -0.7649  0.1194  0.5721
   89DMF     H4 1554   3.055   2.949   3.357 -1.5894 -0.4628 -2.7021
   89DMF     H5 1555   3.204   2.840   3.365  1.5276  0.1578 -1.5007
   89DMF     H6 1556   3.074   2.809   3.249 -0.0829 -0.5217  0.8401
   89DMF     H7 1557   3.122   2.851   3.047 -0.2690  0.3213  1.6682
   90DMF     C1 1558   1.088   3.205   1.541 -1.0300  0.0999  0.4763
   90DMF     N1 1559   0.993   3.100   1.576 -0.4470  0.2604  0.7022
   90DMF     C2 1560   1.048   2.964   1.587  0.5653  0.1208 -0.4001
   90DMF     C3 1561   0.854   3.131   1.570  0.2220 -0.0572 -0.1765
   90DMF     O1 1562   0.806   3.237   1.534 -0.3600 -0.2958 -0.9252
   90DMF     H1 1563   1.187   3.177   1.580 -1.6771 -1.0208  1.3144
   90DMF     H2 1564   1.054   3.295   1.594 -0.0713  0.6882  0.1040
   90DMF     H3 1565   1.089   3.222   1.433  0.2256 -0.2656  0.4275
   90DMF     H4 1566   1.139   2.964   1.648 -1.0563  2.1001  2.0896
   90DMF     H5 1567   1.078   2.935   1.485  0.5402  1.0632 -0.6828
   90DMF     H6 1568   0.974   2.899   1.634 -0.6264  2.4464  1.0067
   90DMF     H7 1569   0.784   3.048   1.594 -1.3414  0.8694 -1.4121
   91DMF     C1 1570   2.020   2.017   3.569  0.4384  0.7946  0.6605
   91DMF     N1 1571   1.944   1.928   3.654 -0.0138 -0.2601  0.1206
   91DMF     C2 1572   1.799   1.913   3.621 -0.3979 -0.3168 -0.1459
   91DMF     C3 1573   2.005   1.846   3.749  0.6424 -0.8269  0.1576
   91DMF     O1 1574   2.114   1.868   3.786  0.1504 -0.2216 -1.0642
   91DMF     H1 1575   2.096   1.968   3.506  0.1343  3.1981 -1.6325
   91DMF     H2 1576   2.076   2.091   3.627 -1.5184 -0.1585  3.8960
   91DMF     H3 1577   1.943   2.058   3.503 -1.5156 -0.3845  2.1183
   91DMF     H4 1578   1.757   1.825   3.672 -1.8371  0.7835  0.5820
   91DMF     H5 1579   1.779   1.908   3.514  1.2180  0.5156 -0.5067
   91DMF     H6 1580   1.741   1.997   3.660 -2.3230 -2.1690  1.1170
   91DMF     H7 1581   1.939   1.768   3.790  0.4324  0.0896  1.6224
   92DMF     C1 1582   0.064   2.817   1.247  0.0685  0.7612 -0.2336
   92DMF     N1 1583   0.016   2.761   1.116 -0.2392 -0.5453 -0.7746
   92DMF     C2 1584   0.019   2.839   0.985 -0.1948 -0.0914 -0.7053
   92DMF     C3 1585  -0.022   2.624   1.112 -0.0976 -0.3636  0.4887
   92DMF     O1 1586  -0.047   2.553   1.212 -0.6151  0.0986  0.2836
   92DMF     H1 1587   0.079   2.925   1.239  0.1714  0.8202  0.6905
   92DMF     H2 1588   0.164   2.779   1.271  0.1795  1.5828  0.6213
   92DMF     H3 1589  -0.006   2.802   1.330  0.2585 -0.6184 -0.3006
   92DMF     H4 1590   0.039   2.946   0.993 -1.0539  0.0856 -0.8828
   92DMF     H5 1591  -0.074   2.839   0.928 -0.4313 -1.4315 -0.3403
   92DMF     H6 1592   0.090   2.796   0.914 -1.0048  0.9088 -2.1359
   92DMF     H7 1593  -0.028   2.579   1.011  0.3490 -0.5462  0.5415
   93DMF     C1 1594   0.873   0.729   1.448 -0.3753 -0.8901 -1.1278
   93DMF     N1 1595   0.909   0.862   1.508  0.3102 -0.3564 -0.2175
   93DMF     C2 1596   1.049   0.864   1.550  0.2399 -0.4250  0.1153
   93DMF     C3 1597   0.811   0.958   1.555 -0.9318  0.2614 -0.5343
   93DMF     O1 1598   0.693   0.944   1.533 -0.3382 -1.3283  0.4866
   93DMF     H1 1599   0.768   0.701   1.437 -0.1222 -1.7297 -1.4165
   93DMF     H2 1600   0.915   0.645   1.505 -1.1213  0.0857  0.9396
   93DMF     H3 1601   0.928   0.710   1.355  0.5488 -2.5229 -0.2773
   93DMF     H4 1602   1.103   0.870   1.455 -1.3728  0.2927 -0.7878
   93DMF     H5 1603   1.076   0.772   1.602  0.4563  0.4042  1.4890
   93DMF     H6 1604   1.073   0.945   1.620  3.0444 -0.0995 -1.1755
   93DMF     H7 1605   0.863   1.038   1.611  0.9786 -1.3847  0.0943
   94DMF     C1 1606   1.561   0.373   0.296  0.5103  0.8666 -0.2963
   94DMF     N1 1607   1.535   0.516   0.269  0.4847 -0.1831 -0.4945
   94DMF     C2 1608   1.649   0.606   0.271 -0.2156 -0.4977 -0.4366
   94DMF     C3 1609   1.402   0.568   0.267 -0.4075  0.2603  0.1880
   94DMF     O1 1610   1.300   0.503   0.283 -0.0813  0.3061  0.0831
   94DMF     H1 1611   1.470   0.317   0.320  0.9004 -0.0604 -0.9456
   94DMF     H2 1612   1.617   0.371   0.390  0.7035  0.2954 -0.4236
   94DMF     H3 1613   1.624   0.345   0.210 -0.4007  0.4803 -0.8433
   94DMF     H4 1614   1.741   0.558   0.237 -0.2651  0.0447 -1.3504
   94DMF     H5 1615   1.657   0.666   0.363 -0.9141  1.5265 -1.6606
   94DMF     H6 1616   1.625   0.671   0.186  0.8813  1.3308  0.6105
   94DMF     H7 1617   1.402   0.676   0.245 -2.6228 -0.0164 -1.4050
   95DMF     C1 1618   0.184   1.717   1.360 -0.4639 -0.0660  0.5106
   95DMF     N1 1619   0.106   1.747   1.483 -0.4272 -0.1986  0.0354
   95DMF     C2 1620   0.167   1.824   1.590  0.4185 -0.1344 -0.3259
   95DMF     C3 1621  -0.034   1.712   1.487  0.2228 -0.1535 -0.2813
   95DMF     O1 1622  -0.086   1.654   1.391 -0.5060  0.6900  0.2317
   95DMF     H1 1623   0.111   1.730   1.279  2.9831  0.2105 -2.6919
   95DMF     H2 1624   0.216   1.613   1.359 -1.9021 -0.5132 -0.3074
   95DMF     H3 1625   0.266   1.789   1.348 -2.3891  1.8017 -2.2038
   95DMF     H4 1626   0.252   1.777   1.641 -0.7909 -1.9655  0.0401
   95DMF     H5 1627   0.089   1.856   1.661  0.1335  0.7453 -1.0236
   95DMF     H6 1628   0.204   1.916   1.542 -0.3362  0.3085 -0.0582
   95DMF     H7 1629  -0.074   1.728   1.589  1.4241 -1.1846  0.3764
   96DMF     C1 1630   1.701   3.337   0.341 -0.3147  0.8695  0.4358
   96DMF     N1 1631   1.739   3.410   0.216  0.0999  0.3457 -0.7482
   96DMF     C2 1632   1.660   3.368   0.100 -0.0131  0.6873 -0.4036
   96DMF     C3 1633   1.794   3.538   0.220  0.3469 -0.3937 -0.5452
   96DMF     O1 1634   1.857   3.576   0.317 -0.0830  0.0653 -0.1029
   96DMF     H1 1635   1.637   3.404   0.400 -0.8196  0.7477  0.0327
   96DMF     H2 1636   1.791   3.311   0.398 -0.3109 -2.1335 -0.8546
   96DMF     H3 1637   1.641   3.248   0.316  2.6311 -0.5859 -1.7437
   96DMF     H4 1638   1.660   3.258   0.102 -1.2963  0.7018  0.3705
   96DMF     H5 1639   1.700   3.412   0.008 -0.2717 -0.0538 -0.8729
   96DMF     H6 1640   1.560   3.410   0.106 -0.2134  0.4344 -1.7504
   96DMF     H7 1641   1.781   3.600   0.129  2.1691 -1.4851 -1.5802
   97DMF     C1 1642   2.737   0.675   1.536 -0.6927  0.3636 -0.4089
   97DMF     N1 1643   2.651   0.558   1.545  0.3448  0.3643  0.3538
   97DMF     C2 1644   2.513   0.589   1.553  0.5772  0.9499  0.0137
   97DMF     C3 1645   2.701   0.425   1.525 -0.0258  0.5479  0.0135
   97DMF     O1 1646   2.819   0.402   1.520 -0.1668 -0.5885 -0.6132
   97DMF     H1 1647   2.812   0.661   1.458  0.4544 -3.5592  1.2959
   97DMF     H2 1648   2.790   0.690   1.630 -0.6179  0.6505 -0.4949
   97DMF     H3 1649   2.678   0.762   1.504 -0.4822  0.3354 -0.8791
   97DMF     H4 1650   2.483   0.631   1.456  1.9171 -1.2056 -1.3638
   97DMF     H5 1651   2.495   0.670   1.625 -0.1068  0.8074 -0.0008
   97DMF     H6 1652   2.452   0.502   1.579  0.9327  1.0107  1.1144
   97DMF     H7 1653   2.614   0.356   1.524  0.8348 -0.5951 -4.3394
   98DMF     C1 1654   0.398   3.003   1.509 -0.2851 -0.7700 -1.0023
   98DMF     N1 1655   0.382   2.859   1.550 -0.2785  0.8016 -0.2890
   98DMF     C2 1656   0.501   2.771   1.557  0.7703  0.4523 -0.4069
   98DMF     C3 1657   0.258   2.805   1.567 -0.0219 -0.4370  0.3250
   98DMF     O1 1658   0.163   2.880   1.571  0.3863 -0.1641  0.6516
   98DMF     H1 1659   0.496   3.022   1.465 -0.1963 -1.7907 -1.2631
   98DMF     H2 1660   0.386   3.069   1.596 -3.6498 -1.7449 -0.6270
   98DMF     H3 1661   0.331   3.030   1.427 -1.2218 -1.6579 -0.5419
   98DMF     H4 1662   0.582   2.838   1.590  0.8341  0.0770  0.2164
   98DMF     H5 1663   0.531   2.728   1.461  1.0273 -0.4156  0.0546
   98DMF     H6 1664   0.497   2.686   1.627 -1.2659  2.0075  1.4374
   98DMF     H7 1665   0.254   2.695   1.575 -2.0074 -0.5589 -1.8322
   99DMF     C1 1666   2.781   1.564   1.529 -0.5060  0.4945  0.5407
   99DMF     N1 1667   2.854   1.691   1.521 -0.3091 -0.0478  0.2951
   99DMF     C2 1668   2.995   1.702   1.485 -0.0791  0.3345  0.4364
   99DMF     C3 1669   2.797   1.811   1.570  0.1254 -0.0664  0.1277
   99DMF     O1 1670   2.676   1.806   1.605 -0.3617 -0.2467  0.2691
   99DMF     H1 1671   2.716   1.568   1.617  0.0233  1.9437  0.8896
   99DMF     H2 1672   2.845   1.476   1.539  0.2934  0.9627 -0.3489
   99DMF     H3 1673   2.725   1.540   1.438  0.3601  0.0239  0.1340
   99DMF     H4 1674   3.027   1.600   1.457 -0.3243  0.4989 -0.4582
   99DMF     H5 1675   3.061   1.738   1.565  0.3107 -0.2308  0.3748
   99DMF     H6 1676   3.013   1.775   1.405 -1.9663  1.1969  0.7792
   99DMF     H7 1677   2.864   1.898   1.572  2.6817 -1.9495 -1.0517
  100DMF     C1 1678   2.412   0.358   0.119  0.1541  0.3380  0.1663
  100DMF     N1 1679   2.439   0.420   0.250  0.8503  0.0347  0.1192
  100DMF     C2 1680   2.529   0.535   0.256 -0.1544  0.0404 -0.3575
  100DMF     C3 1681   2.361   0.387   0.366  0.6315 -0.5010  0.2376
  100DMF     O1 1682   2.273   0.302   0.370  0.0107 -0.0403 -0.5201
  100DMF     H1 1683   2.306   0.330   0.121 -0.1609  1.4491 -0.6424
  100DMF     H2 1684   2.478   0.270   0.120  1.0461  0.9923 -0.2233
  100DMF     H3 1685   2.423   0.431   0.038  0.2333  0.8963  0.6769
  100DMF     H4 1686   2.635   0.507   0.249  0.3234  1.8184 -0.5498
  100DMF     H5 1687   2.521   0.595   0.348 -0.5099  1.3666 -1.2397
  100DMF     H6 1688   2.506   0.603   0.173  0.7001 -1.0655 -1.5303
  100DMF     H7 1689   2.375   0.450   0.455  0.1468 -1.6093  1.1060
  101DMF     C1 1690   0.317   0.940   0.528 -0.0249  1.0881  0.2895
  101DMF     N1 1691   0.463   0.938   0.477  0.0540  0.2113  0.0065
  101DMF     C2 1692   0.548   0.823   0.510  0.3312 -0.0390 -0.0479
  101DMF     C3 1693   0.504   1.033   0.385 -0.6499 -0.1468 -0.3650
  101DMF     O1 1694   0.439   1.128   0.359 -0.0131  0.2765  0.7242
  101DMF     H1 1695   0.302   1.026   0.595  0.0724  2.1904 -1.0832
  101DMF     H2 1696   0.305   0.848   0.587 -2.1606  1.2634  0.1579
  101DMF     H3 1697   0.235   0.942   0.455 -1.3666  0.2256  1.7498
  101DMF     H4 1698   0.628   0.857   0.577 -1.3146  0.0185  1.9283
  101DMF     H5 1699   0.609   0.789   0.426  2.7865  0.1118  1.6210
  101DMF     H6 1700   0.491   0.746   0.563 -0.6591  1.4317  1.0751
  101DMF     H7 1701   0.601   1.013   0.337 -0.0567  0.7269  0.4557
  102DMF     C1 1702   1.013   1.869   1.143  0.3662 -0.5456 -0.8741
  102DMF     N1 1703   0.944   1.889   1.012 -0.2561  0.5777 -0.4547
  102DMF     C2 1704   0.823   1.817   0.996  0.0087  0.3530 -0.4410
  102DMF     C3 1705   0.990   1.982   0.915 -0.3599 -0.1819  0.2318
  102DMF     O1 1706   1.094   2.041   0.941 -0.2228  0.9021  0.2575
  102DMF     H1 1707   1.006   1.972   1.180 -1.5712 -0.6346 -0.9317
  102DMF     H2 1708   1.119   1.843   1.133  0.8794  1.3877 -0.7424
  102DMF     H3 1709   0.966   1.792   1.205 -1.1401  0.3349 -0.9036
  102DMF     H4 1710   0.735   1.880   1.016  1.2609  1.9672  0.1440
  102DMF     H5 1711   0.817   1.729   1.061  1.2183  1.6587  1.4996
  102DMF     H6 1712   0.828   1.795   0.888  0.5521 -1.0359 -0.1404
  102DMF     H7 1713   0.921   1.999   0.831  0.1088 -0.9466 -0.3228
  103DMF     C1 1714   2.380   3.400   1.478 -0.5180 -0.5936  0.3732
  103DMF     N1 1715   2.322   3.268   1.457  0.2967 -0.0696 -0.0946
  103DMF     C2 1716   2.417   3.155   1.471  0.3935 -0.4871 -0.2900
  103DMF     C3 1717   2.183   3.245   1.449  0.2355 -0.2705 -0.7085
  103DMF     O1 1718   2.103   3.338   1.428  0.6443 -0.2189 -0.1330
  103DMF     H1 1719   2.313   3.487   1.482  2.4595  1.7512  2.4972
  103DMF     H2 1720   2.454   3.427   1.402 -1.1805  0.1391 -0.0241
  103DMF     H3 1721   2.422   3.402   1.579  0.0170 -0.9534  0.1596
  103DMF     H4 1722   2.459   3.164   1.572  0.1625 -1.2493 -0.1237
  103DMF     H5 1723   2.492   3.149   1.391  1.2366 -0.5905  0.4933
  103DMF     H6 1724   2.360   3.063   1.457  1.3859 -1.0413 -0.7453
  103DMF     H7 1725   2.153   3.141   1.470 -2.4578  0.4477 -0.8037
  104DMF     C1 1726   1.535   2.232   3.672 -0.2395  0.3214 -0.3561
  104DMF     N1 1727   1.400   2.176   3.635  0.3476 -0.7554  0.0657
  104DMF     C2 1728   1.288   2.197   3.731  0.4912 -0.1669  0.1804
  104DMF     C3 1729   1.382   2.109   3.512  0.5441  0.0317  0.0929
  104DMF     O1 1730   1.468   2.090   3.429 -0.1095 -0.6083  0.1774
  104DMF     H1 1731   1.552   2.218   3.780  0.2067 -2.7345 -0.7922
  104DMF     H2 1732   1.544   2.340   3.653 -2.6987  0.5056 -0.6694
  104DMF     H3 1733   1.615   2.183   3.617 -1.3978 -3.2625  1.0337
  104DMF     H4 1734   1.271   2.097   3.774  0.8090 -0.2909  0.0123
  104DMF     H5 1735   1.199   2.234   3.679  1.4320  0.3697 -1.0511
  104DMF     H6 1736   1.320   2.264   3.812 -0.3626  0.0378  0.3613
  104DMF     H7 1737   1.284   2.058   3.519  0.3334  0.3500 -0.5384
  105DMF     C1 1738   0.964   1.548   1.460  0.4338 -0.5602  0.1899
  105DMF     N1 1739   1.074   1.463   1.506 -0.3684  0.6489  0.6205
  105DMF     C2 1740   1.204   1.515   1.468 -0.0194 -0.1833 -0.0344
  105DMF     C3 1741   1.059   1.336   1.559 -0.0398  0.0503  0.0544
  105DMF     O1 1742   0.956   1.271   1.554  0.4349  1.0072 -0.1216
  105DMF     H1 1743   0.987   1.655   1.449 -0.4270  0.0982  4.0323
  105DMF     H2 1744   0.898   1.544   1.547 -0.5099  0.5462 -0.4519
  105DMF     H3 1745   0.908   1.503   1.377 -1.1720 -0.0444  0.9833
  105DMF     H4 1746   1.271   1.524   1.554  1.3622 -1.0512 -1.0116
  105DMF     H5 1747   1.193   1.615   1.425 -0.0686  0.1182  0.6833
  105DMF     H6 1748   1.247   1.435   1.406  1.5619  0.2071  0.5558
  105DMF     H7 1749   1.149   1.296   1.609 -1.1323 -0.5354  1.5986
  106DMF     C1 1750   3.376   0.786   3.225  0.5525  0.2843  0.6866
  106DMF     N1 1751   3.517   0.745   3.252  0.7009  0.2087 -0.7649
  106DMF     C2 1752   3.621   0.793   3.160  0.6256  0.3379  0.4062
  106DMF     C3 1753   3.545   0.665   3.358  0.6414  0.2658 -0.2110
  106DMF     O1 1754   3.458   0.616   3.428 -0.3477  0.3867 -0.1345
  106DMF     H1 1755   3.313   0.702   3.256 -1.9723  1.6434 -0.6361
  106DMF     H2 1756   3.369   0.804   3.117 -1.5310 -1.8571  0.4317
  106DMF     H3 1757   3.350   0.877   3.280  1.0526  2.0670 -1.9446
  106DMF     H4 1758   3.700   0.717   3.155  1.1594  0.8550  0.8839
  106DMF     H5 1759   3.666   0.888   3.192  1.0060  0.3264 -0.0916
  106DMF     H6 1760   3.583   0.789   3.057 -0.9161 -3.9410  1.0278
  106DMF     H7 1761   3.649   0.635   3.377 -0.4108 -2.7309  1.0545
  107DMF     C1 1762   2.178   0.370   1.534  0.2440  0.2141 -0.7397
  107DMF     N1 1763   2.041   0.318   1.548 -0.1127  0.1639  0.4729
  107DMF     C2 1764   2.015   0.176   1.539 -0.3142  0.2181 -0.1310
  107DMF     C3 1765   1.934   0.398   1.579  0.2459 -0.1194 -0.4628
  107DMF     O1 1766   1.935   0.520   1.574  0.0587  0.1993  0.4902
  107DMF     H1 1767   2.244   0.288   1.502 -0.6869 -0.6264 -0.5540
  107DMF     H2 1768   2.203   0.414   1.631 -0.5620 -1.8568  0.4521
  107DMF     H3 1769   2.193   0.449   1.460  0.4372 -0.2936 -1.2447
  107DMF     H4 1770   1.975   0.152   1.440  0.6771  0.5352 -0.6205
  107DMF     H5 1771   1.938   0.148   1.612  0.5653  1.8528  1.4675
  107DMF     H6 1772   2.100   0.108   1.553 -0.5823 -0.3015 -1.0201
  107DMF     H7 1773   1.841   0.338   1.574 -0.1933  0.6937 -2.8182
  108DMF     C1 1774   2.636   2.087   1.275 -0.3424 -0.3106 -0.4819
  108DMF     N1 1775   2.679   2.010   1.163  0.0906  0.0455  0.6216
  108DMF     C2 1776   2.783   1.903   1.174 -0.0916  0.1682  0.2227
  108DMF     C3 1777   2.636   2.044   1.033 -0.2668  0.6222  1.2797
  108DMF     O1 1778   2.549   2.129   1.017  0.7145  0.1699 -0.2940
  108DMF     H1 1779   2.536   2.126   1.253  0.1921  1.8967  0.8008
  108DMF     H2 1780   2.710   2.166   1.293 -0.3367 -0.0424 -1.6567
  108DMF     H3 1781   2.621   2.035   1.371 -1.5488 -2.2952 -1.7191
  108DMF     H4 1782   2.876   1.944   1.216  1.6444 -2.2449 -1.1040
  108DMF     H5 1783   2.797   1.857   1.075 -2.2239 -1.4202  0.6382
  108DMF     H6 1784   2.751   1.817   1.234  0.1514 -0.1852 -0.1500
  108DMF     H7 1785   2.690   1.994   0.951 -1.8632  2.7976 -1.1760
  109DMF     C1 1786   0.836   1.259   1.105  0.0311 -0.0990 -0.1083
  109DMF     N1 1787   0.823   1.139   1.188  1.1253 -0.5855 -0.2270
  109DMF     C2 1788   0.940   1.093   1.276 -0.2918 -0.3058 -0.0888
  109DMF     C3 1789   0.695   1.085   1.213  0.3330 -0.0186  0.9172
  109DMF     O1 1790   0.591   1.131   1.159 -0.1945  0.0673 -0.0145
  109DMF     H1 1791   0.745   1.314   1.078  0.7854  1.4685  0.4902
  109DMF     H2 1792   0.885   1.228   1.012  1.5144 -0.3356  0.7453
  109DMF     H3 1793   0.903   1.327   1.158 -0.3381 -0.1597  0.4441
  109DMF     H4 1794   1.028   1.139   1.229  0.7669 -0.2057  1.9290
  109DMF     H5 1795   0.961   0.985   1.277  0.6624 -0.1609 -1.7441
  109DMF     H6 1796   0.925   1.134   1.376 -0.6233  2.9187 -1.3925
  109DMF     H7 1797   0.703   0.998   1.280 -0.7677 -0.6272  0.2911
  110DMF     C1 1798   0.341   3.014   0.727  0.4553 -0.4778  0.5195
  110DMF     N1 1799   0.351   2.891   0.650  0.5038 -0.3672  0.6812
  110DMF     C2 1800   0.317   2.766   0.726 -0.0825 -0.0157  0.2276
  110DMF     C3 1801   0.360   2.887   0.515 -1.3198 -1.0921 -0.3882
  110DMF     O1 1802   0.372   2.990   0.445 -0.6486  0.0571 -0.2732
  110DMF     H1 1803   0.237   3.047   0.727 -0.0004 -1.8474  0.9589
  110DMF     H2 1804   0.407   3.088   0.680 -2.1299  0.4484 -1.7690
  110DMF     H3 1805   0.369   2.990   0.831  1.6767  0.6357  0.4494
  110DMF     H4 1806   0.405   2.700   0.720 -0.0298  0.0191  0.5951
  110DMF     H5 1807   0.229   2.711   0.690 -2.4808  2.5429  1.9827
  110DMF     H6 1808   0.309   2.782   0.834 -0.7660  1.3667 -0.0120
  110DMF     H7 1809   0.344   2.785   0.475  0.8823 -1.5737 -0.0896
  111DMF     C1 1810   0.540   2.566   0.040 -0.2401  0.4562 -0.6522
  111DMF     N1 1811   0.521   2.620   0.173  0.5578  0.0806 -0.3164
  111DMF     C2 1812   0.396   2.588   0.244 -0.4493  0.3313  0.3853
  111DMF     C3 1813   0.622   2.698   0.233  0.4330  0.1277 -0.5455
  111DMF     O1 1814   0.724   2.722   0.171  0.1213 -0.4534  0.2172
  111DMF     H1 1815   0.536   2.650  -0.030  1.7830  0.0962 -1.2437
  111DMF     H2 1816   0.453   2.503   0.018 -0.3215 -0.0731  1.0967
  111DMF     H3 1817   0.634   2.509   0.035 -0.6471 -0.1195 -1.9717
  111DMF     H4 1818   0.332   2.677   0.232 -2.7822 -1.0610  2.1363
  111DMF     H5 1819   0.414   2.565   0.350  3.7482 -0.2458 -0.3704
  111DMF     H6 1820   0.343   2.511   0.187 -0.3695  1.6392 -1.4933
  111DMF     H7 1821   0.602   2.731   0.336  3.9615  0.2359  0.1659
  112DMF     C1 1822   1.924   2.996   0.194  0.2254 -0.2494 -0.4382
  112DMF     N1 1823   1.964   3.134   0.162 -0.3933  0.1459  0.6468
  112DMF     C2 1824   2.020   3.212   0.273 -0.5045 -0.0323  0.8346
  112DMF     C3 1825   1.953   3.188   0.025 -0.0906  0.1437 -0.3278
  112DMF     O1 1826   1.919   3.124  -0.075  0.0048  0.0864 -0.1351
  112DMF     H1 1827   2.011   2.945   0.237  1.0595  1.2953 -0.2768
  112DMF     H2 1828   1.890   2.938   0.107  1.8642  0.5585 -1.6356
  112DMF     H3 1829   1.846   2.986   0.270  0.4466 -1.9876 -0.4190
  112DMF     H4 1830   1.974   3.175   0.365 -1.2636  0.0043  0.4712
  112DMF     H5 1831   2.006   3.320   0.268 -0.0953 -0.0730 -1.9686
  112DMF     H6 1832   2.126   3.184   0.279 -0.3025  0.8027  1.1592
  112DMF     H7 1833   1.999   3.289   0.026 -0.2844  0.2303  1.5526
  113DMF     C1 1834   0.335   1.550   1.040  0.2311 -0.2337  0.2862
  113DMF     N1 1835   0.369   1.445   1.142 -0.0397  0.3133  0.6655
  113DMF     C2 1836   0.279   1.326   1.139 -0.4014 -0.2501 -0.5894
  113DMF     C3 1837   0.495   1.434   1.193 -0.0808  0.3287 -0.2067
  113DMF     O1 1838   0.582   1.514   1.155  0.5185  0.0126  0.2055
  113DMF     H1 1839   0.411   1.629   1.031  1.6528 -1.7796 -1.8154
  113DMF     H2 1840   0.241   1.605   1.058  0.4478  0.3968 -0.4519
  113DMF     H3 1841   0.335   1.502   0.941  0.3371 -0.9414  0.6319
  113DMF     H4 1842   0.331   1.235   1.173  1.3500  0.9981  0.1582
  113DMF     H5 1843   0.229   1.308   1.043 -0.5265 -0.7790 -0.4276
  113DMF     H6 1844   0.192   1.348   1.203 -2.4009 -1.5446 -2.7813
  113DMF     H7 1845   0.509   1.348   1.261  0.0338  1.6815  1.4982
  114DMF     C1 1846   2.204   1.671   1.312 -0.5981 -0.6575  0.2389
  114DMF     N1 1847   2.299   1.750   1.393  0.0838 -0.2790 -0.2571
  114DMF     C2 1848   2.429   1.799   1.348 -0.2102  0.1611 -0.2651
  114DMF     C3 1849   2.258   1.797   1.523  0.5973  0.3017 -0.8942
  114DMF     O1 1850   2.146   1.777   1.571 -0.2084 -0.1072 -0.3202
  114DMF     H1 1851   2.219   1.657   1.204  1.4320  1.7928  0.1556
  114DMF     H2 1852   2.103   1.714   1.311 -0.8397 -1.2256 -0.1119
  114DMF     H3 1853   2.192   1.574   1.362 -3.2587  0.0216  0.9846
  114DMF     H4 1854   2.499   1.716   1.364  0.9490  1.3766  1.1904
  114DMF     H5 1855   2.469   1.882   1.407 -0.2426 -0.7109  1.0262
  114DMF     H6 1856   2.428   1.829   1.243 -1.5063  1.2904  0.0600
  114DMF     H7 1857   2.336   1.855   1.575 -0.2692  1.2013 -0.5806
  115DMF     C1 1858   1.102   2.141   1.426 -0.2484  0.4297  0.0694
  115DMF     N1 1859   1.200   2.042   1.376 -0.1784 -0.1759  0.7169
  115DMF     C2 1860   1.297   2.079   1.264  0.4515 -0.0075 -0.3668
  115DMF     C3 1861   1.215   1.918   1.451  0.0447  0.1811 -0.1606
  115DMF     O1 1862   1.141   1.884   1.545  0.0156 -0.0467  0.1122
  115DMF     H1 1863   1.152   2.237   1.439 -3.0614  2.1661 -1.5904
  115DMF     H2 1864   1.046   2.104   1.513  0.9770  0.8360  1.0476
  115DMF     H3 1865   1.033   2.164   1.344 -0.4149 -1.0970 -0.2432
  115DMF     H4 1866   1.248   2.125   1.177 -0.0252 -1.9727 -1.1603
  115DMF     H5 1867   1.348   1.990   1.225  1.3765 -0.0997  0.9972
  115DMF     H6 1868   1.380   2.141   1.301  1.1332 -0.8842 -0.4090
  115DMF     H7 1869   1.294   1.847   1.420 -0.4067  0.0996 -1.1467
  116DMF     C1 1870   1.691   3.012   0.518 -0.5213 -0.4367  0.1136
  116DMF     N1 1871   1.628   3.104   0.613  1.0416  0.2554 -0.0094
  116DMF     C2 1872   1.708   3.216   0.663  0.5342 -0.3184  0.0205
  116DMF     C3 1873   1.494   3.096   0.653 -0.0880 -0.3400 -0.1061
  116DMF     O1 1874   1.418   3.003   0.622  0.1547 -0.0064 -0.0864
  116DMF     H1 1875   1.649   3.025   0.418  1.1912 -0.2838 -0.6035
  116DMF     H2 1876   1.657   2.915   0.557  2.7951 -1.0993  1.5169
  116DMF     H3 1877   1.799   3.032   0.513 -0.6452  0.8366  2.0374
  116DMF     H4 1878   1.706   3.208   0.773 -1.1070 -0.9477 -0.0548
  116DMF     H5 1879   1.671   3.312   0.626  1.4307 -0.5380 -1.4634
  116DMF     H6 1880   1.810   3.192   0.631  0.7369 -0.4128  0.7246
  116DMF     H7 1881   1.453   3.175   0.719  0.2430  1.3957 -1.9332
  117DMF     C1 1882   0.166   0.986   1.324  0.3593 -0.0973 -0.1466
  117DMF     N1 1883   0.062   0.928   1.233 -0.6756 -0.2722  0.0593
  117DMF     C2 1884   0.038   0.983   1.103  0.5899 -0.2849 -0.4406
  117DMF     C3 1885  -0.021   0.825   1.276 -0.3885 -0.0037  0.4889
  117DMF     O1 1886  -0.013   0.765   1.381 -0.0991 -0.3391  0.1905
  117DMF     H1 1887   0.237   0.905   1.344  0.5158 -0.3793 -1.7957
  117DMF     H2 1888   0.128   1.012   1.423 -2.1328 -0.8950 -0.8577
  117DMF     H3 1889   0.212   1.076   1.282 -3.1547  1.6978 -0.3232
  117DMF     H4 1890   0.110   1.065   1.087  0.6013 -0.3168 -0.5573
  117DMF     H5 1891  -0.064   1.022   1.107  1.3262  1.7201 -0.3864
  117DMF     H6 1892   0.049   0.907   1.025 -2.4639 -0.8658 -0.3314
  117DMF     H7 1893  -0.105   0.822   1.204  0.2022 -1.3646 -0.1691
  118DMF     C1 1894   1.918   2.367   0.907 -0.1176  0.5574  0.3020
  118DMF     N1 1895   1.849   2.394   0.783 -0.2720 -0.0648 -0.4299
  118DMF     C2 1896   1.710   2.356   0.780  0.0467 -0.5047 -0.0045
  118DMF     C3 1897   1.924   2.439   0.669  0.5561 -0.1872 -0.0276
  118DMF     O1 1898   2.042   2.472   0.676 -0.1231 -0.4557  0.5876
  118DMF     H1 1899   1.877   2.437   0.980 -0.7933  2.1313 -1.5385
  118DMF     H2 1900   2.028   2.369   0.909 -0.1431  1.1851  1.4474
  118DMF     H3 1901   1.894   2.266   0.943  0.9657  0.0833 -0.2564
  118DMF     H4 1902   1.681   2.371   0.675  3.8771 -1.1654 -1.2479
  118DMF     H5 1903   1.645   2.428   0.831 -0.1811 -0.1088 -0.8432
  118DMF     H6 1904   1.691   2.255   0.817 -2.8038 -0.3506 -0.9019
  118DMF     H7 1905   1.873   2.446   0.571  1.0001 -0.1681 -0.2602
  119DMF     C1 1906   0.842   3.242   0.933  0.1857 -0.2423  0.5868
  119DMF     N1 1907   0.837   3.228   1.081  0.2162  0.5221 -0.0037
  119DMF     C2 1908   0.931   3.314   1.157  0.1165 -0.8541  0.7539
  119DMF     C3 1909   0.756   3.132   1.143 -0.1615  0.6713 -0.0381
  119DMF     O1 1910   0.675   3.060   1.082 -0.4403 -0.3520  0.0663
  119DMF     H1 1911   0.938   3.201   0.898 -0.9423 -1.0621 -1.6833
  119DMF     H2 1912   0.819   3.341   0.891 -2.1797 -0.7654  0.5591
  119DMF     H3 1913   0.765   3.181   0.883  0.7298  1.3120 -2.2671
  119DMF     H4 1914   0.938   3.275   1.259  1.9691 -2.7455 -0.0614
  119DMF     H5 1915   0.886   3.414   1.164  2.2650  0.1144  1.1113
  119DMF     H6 1916   1.025   3.316   1.101  0.1137 -1.5158  0.7239
  119DMF     H7 1917   0.778   3.111   1.249  0.4530 -2.9691 -0.8202
  120DMF     C1 1918   3.252   1.269   1.046  0.1531 -0.8963  0.4620
  120DMF     N1 1919   3.163   1.380   1.082  0.8871  0.0060  0.2300
  120DMF     C2 1920   3.207   1.522   1.036 -0.1038  1.0519 -0.7448
  120DMF     C3 1921   3.032   1.359   1.123  0.0570  0.8409 -0.0264
  120DMF     O1 1922   2.983   1.247   1.141  0.0852 -0.2831  0.0171
  120DMF     H1 1923   3.261   1.266   0.937  1.1994 -0.1011  0.5225
  120DMF     H2 1924   3.202   1.176   1.077  1.7626 -1.5098  1.2629
  120DMF     H3 1925   3.355   1.283   1.079  0.1999  0.2794 -0.1802
  120DMF     H4 1926   3.133   1.565   0.967 -1.1405  1.1272  0.3772
  120DMF     H5 1927   3.313   1.520   1.008  0.5846  1.7725  1.6679
  120DMF     H6 1928   3.200   1.589   1.123  0.2425 -0.1753  0.2375
  120DMF     H7 1929   2.965   1.446   1.135  0.0107  0.8608 -0.4140
  121DMF     C1 1930   2.092   3.060   1.157 -0.5609 -0.2148 -0.0159
  121DMF     N1 1931   2.232   3.022   1.160 -0.0619  0.2038  0.1166
  121DMF     C2 1932   2.339   3.109   1.109 -0.4593 -0.8516  0.0982
  121DMF     C3 1933   2.279   2.916   1.237  0.4437 -0.1277  0.6378
  121DMF     O1 1934   2.206   2.842   1.296 -0.8592  0.4599 -0.1174
  121DMF     H1 1935   2.074   3.103   1.057 -2.4287 -0.9402 -0.0214
  121DMF     H2 1936   2.067   3.139   1.229  1.0277 -0.6146  0.9896
  121DMF     H3 1937   2.030   2.972   1.179  0.5022 -0.8458  0.4553
  121DMF     H4 1938   2.403   3.060   1.035  1.7123  1.6330  0.2312
  121DMF     H5 1939   2.397   3.152   1.192  1.4257 -0.5222 -1.3436
  121DMF     H6 1940   2.285   3.195   1.065  1.4489  1.2358  1.7000
  121DMF     H7 1941   2.388   2.894   1.241  0.3863 -0.4465  0.4776
  122DMF     C1 1942   0.736   2.032   1.543 -0.2137 -0.8136  0.1473
  122DMF     N1 1943   0.643   1.917   1.560  0.0849  0.4680  0.5848
  122DMF     C2 1944   0.714   1.785   1.533 -0.5037  0.3257  0.0970
  122DMF     C3 1945   0.505   1.919   1.575  0.2162  0.1282  0.0805
  122DMF     O1 1946   0.445   2.020   1.568  0.7067 -0.0952 -0.5538
  122DMF     H1 1947   0.746   2.059   1.437  0.8746  2.2811  0.9803
  122DMF     H2 1948   0.838   2.017   1.580  0.1487  1.8516  0.3218
  122DMF     H3 1949   0.696   2.123   1.590 -0.7848 -0.1482 -1.5554
  122DMF     H4 1950   0.821   1.794   1.551 -0.8043  0.9695  1.6737
  122DMF     H5 1951   0.691   1.732   1.440  3.0744  0.7734 -1.1089
  122DMF     H6 1952   0.676   1.725   1.616 -0.3264  0.6447  0.4074
  122DMF     H7 1953   0.461   1.818   1.581  1.5174 -0.3279  2.7783
  123DMF     C1 1954   2.762   1.290   3.620 -0.1587 -0.0351  0.1389
  123DMF     N1 1955   2.724   1.252   3.758  0.2258  1.1238  0.2569
  123DMF     C2 1956   2.621   1.337   3.820  0.6585  0.2470 -0.2015
  123DMF     C3 1957   2.777   1.131   3.816  0.0708  0.0596 -0.0005
  123DMF     O1 1958   2.861   1.063   3.759  0.3060 -0.2953  0.4436
  123DMF     H1 1959   2.708   1.223   3.553  0.3092  0.3408 -0.6207
  123DMF     H2 1960   2.871   1.287   3.604 -0.1827 -0.6853  0.0818
  123DMF     H3 1961   2.742   1.395   3.596 -0.1675  0.4111  1.9944
  123DMF     H4 1962   2.634   1.327   3.928 -0.8392 -1.0782 -0.1315
  123DMF     H5 1963   2.522   1.297   3.796  1.4581 -3.1927  1.8544
  123DMF     H6 1964   2.630   1.443   3.792  0.5766  0.0839 -0.8686
  123DMF     H7 1965   2.731   1.131   3.917 -2.6834 -0.8507 -1.2182
  124DMF     C1 1966   3.192   3.312   1.119 -0.1425  0.6286  0.4627
  124DMF     N1 1967   3.233   3.314   0.980 -0.2758 -0.7122 -0.3511
  124DMF     C2 1968   3.252   3.445   0.916 -0.7015  0.0034  0.0666
  124DMF     C3 1969   3.268   3.190   0.924 -0.1145  0.2967 -0.1932
  124DMF     O1 1970   3.249   3.090   0.990  0.0863 -0.0095  0.3022
  124DMF     H1 1971   3.280   3.329   1.183 -0.0391  0.9043  0.2449
  124DMF     H2 1972   3.133   3.221   1.139 -0.7596  1.0690  0.6413
  124DMF     H3 1973   3.113   3.386   1.134 -1.4964 -0.5960 -0.4487
  124DMF     H4 1974   3.352   3.453   0.870 -0.9458 -1.5768 -0.7952
  124DMF     H5 1975   3.243   3.528   0.986  1.8067 -0.5169  1.0590
  124DMF     H6 1976   3.183   3.450   0.830 -1.8238 -0.8165  0.9094
  124DMF     H7 1977   3.313   3.191   0.822 -0.7600 -0.4989 -0.4894
  125DMF     C1 1978   3.259   0.538   3.730 -0.5344 -0.2548 -0.2142
  125DMF     N1 1979   3.124   0.500   3.687  0.3497 -0.1473 -0.0824
  125DMF     C2 1980   3.042   0.591   3.595  0.0733 -0.0034  0.6393
  125DMF     C3 1981   3.059   0.391   3.742 -0.2677  0.3010 -0.0209
  125DMF     O1 1982   3.101   0.322   3.833 -0.1506  0.2172 -0.0170
  125DMF     H1 1983   3.317   0.558   3.639  0.7517 -1.3823  0.3353
  125DMF     H2 1984   3.311   0.464   3.792  1.0078  1.2028  0.2777
  125DMF     H3 1985   3.268   0.633   3.784  0.5264 -0.2385 -0.4093
  125DMF     H4 1986   3.120   0.639   3.534  2.1317 -0.5736  2.7529
  125DMF     H5 1987   2.985   0.667   3.648  0.8174  0.0402  1.3940
  125DMF     H6 1988   2.979   0.532   3.527  1.0244  1.6160 -1.7020
  125DMF     H7 1989   2.954   0.382   3.709 -0.6680  1.8652  0.7811
  126DMF     C1 1990   3.119   2.843   1.551 -0.5935  0.6260 -0.1325
  126DMF     N1 1991   3.078   2.827   1.408  0.4811 -0.2826  0.0487
  126DMF     C2 1992   3.094   2.705   1.326  0.0593  0.4683  0.1021
  126DMF     C3 1993   3.024   2.938   1.337  0.3484 -0.0659 -0.2832
  126DMF     O1 1994   3.015   3.048   1.387 -0.5039  0.0150 -0.3933
  126DMF     H1 1995   3.096   2.944   1.590 -0.2136  0.8574 -0.5041
  126DMF     H2 1996   3.225   2.819   1.567 -1.5316 -2.4396  1.9270
  126DMF     H3 1997   3.068   2.770   1.615  0.0577 -0.1906 -0.5415
  126DMF     H4 1998   3.145   2.624   1.379 -0.7341  0.4599  0.8508
  126DMF     H5 1999   3.165   2.721   1.243  0.0437 -1.6904 -0.3418
  126DMF     H6 2000   2.999   2.661   1.293  0.1651  0.5529 -0.3270
  126DMF     H7 2001   2.997   2.905   1.236  2.1399 -2.5234 -0.0139
  127DMF     C1 2002   0.478   3.340   0.935  0.0075 -0.4079  0.3869
  127DMF     N1 2003   0.350   3.315   1.002 -0.2369  0.8894 -0.5009
  127DMF     C2 2004   0.348   3.215   1.116 -0.4844  0.3195  0.2828
  127DMF     C3 2005   0.227   3.329   0.935 -0.0524  0.1669  0.2671
  127DMF     O1 2006   0.216   3.370   0.818 -0.7124 -0.1183 -0.4321
  127DMF     H1 2007   0.503   3.249   0.879 -3.0525 -2.6465  2.4234
  127DMF     H2 2008   0.559   3.364   1.005  0.1994  1.4531 -0.4504
  127DMF     H3 2009   0.460   3.431   0.877  1.1800  0.4404  1.3474
  127DMF     H4 2010   0.438   3.152   1.116 -0.5335  0.2288 -0.7110
  127DMF     H5 2011   0.259   3.151   1.104 -0.0942 -0.3795  1.0382
  127DMF     H6 2012   0.343   3.269   1.211 -1.8866 -1.9909  1.5736
  127DMF     H7 2013   0.134   3.315   0.992 -0.3914  0.9156 -0.0976
  128DMF     C1 2014   1.419   2.827   1.547  0.0610  0.0249 -0.1905
  128DMF     N1 2015   1.557   2.763   1.552  0.1905 -0.5945  0.4072
  128DMF     C2 2016   1.672   2.855   1.557 -0.3226 -0.8768 -0.0876
  128DMF     C3 2017   1.581   2.622   1.560 -0.0576 -0.5067 -0.5668
  128DMF     O1 2018   1.483   2.543   1.558 -0.4608 -0.0975 -0.1731
  128DMF     H1 2019   1.351   2.762   1.602 -0.0428 -0.0944 -0.4583
  128DMF     H2 2020   1.381   2.824   1.444 -0.4970 -0.0058  0.0178
  128DMF     H3 2021   1.422   2.928   1.590 -1.8474  0.1831 -0.4108
  128DMF     H4 2022   1.645   2.956   1.522  3.1808 -0.2902 -1.3022
  128DMF     H5 2023   1.746   2.816   1.487 -1.9085 -2.5776 -0.8408
  128DMF     H6 2024   1.712   2.865   1.659  0.9821  2.0469 -0.8189
  128DMF     H7 2025   1.685   2.585   1.554  0.3443  0.0680  2.2692
  129DMF     C1 2026   0.547   2.138   0.869  0.5518 -0.8176  0.4280
  129DMF     N1 2027   0.495   2.059   0.760  0.7272  0.2877  0.3077
  129DMF     C2 2028   0.467   1.918   0.797  0.8637 -0.2367  0.6291
  129DMF     C3 2029   0.435   2.118   0.646  0.2488  0.1235 -0.0467
  129DMF     O1 2030   0.425   2.234   0.618  0.2263 -0.2241  0.4581
  129DMF     H1 2031   0.629   2.081   0.913  1.7676  0.7074  0.1746
  129DMF     H2 2032   0.477   2.159   0.950  1.7810 -0.9312  1.5430
  129DMF     H3 2033   0.583   2.232   0.826  0.6603 -0.7415  0.6851
  129DMF     H4 2034   0.439   1.845   0.720  2.2447  0.8828 -0.9615
  129DMF     H5 2035   0.385   1.924   0.869 -0.6142 -0.8039 -0.9753
  129DMF     H6 2036   0.552   1.869   0.847 -0.8608 -1.1244  2.7593
  129DMF     H7 2037   0.404   2.038   0.577  0.1049  0.3334 -0.2268
  130DMF     C1 2038   3.227   3.180   0.307  0.0878 -0.3182  0.4021
  130DMF     N1 2039   3.355   3.227   0.361  0.0788 -0.2409 -0.0593
  130DMF     C2 2040   3.480   3.201   0.281 -0.9239 -0.5095  0.6085
  130DMF     C3 2041   3.356   3.292   0.491  0.0450  0.0054  0.0168
  130DMF     O1 2042   3.254   3.294   0.559 -0.4228 -0.2351 -0.1294
  130DMF     H1 2043   3.150   3.155   0.380 -0.5778  1.8489  0.5001
  130DMF     H2 2044   3.236   3.107   0.226 -2.1831 -0.0280 -0.1305
  130DMF     H3 2045   3.180   3.266   0.258  0.4852 -1.6713 -2.4694
  130DMF     H4 2046   3.468   3.193   0.173  1.0080  0.4092  0.2953
  130DMF     H5 2047   3.533   3.109   0.308  1.0754  1.2902  3.1138
  130DMF     H6 2048   3.555   3.280   0.296  0.5211 -1.3966 -1.7921
  130DMF     H7 2049   3.449   3.335   0.530 -0.5638  1.6982 -0.3460
  131DMF     C1 2050   0.644   3.268   0.601  0.6130 -0.6223 -0.4874
  131DMF     N1 2051   0.593   3.405   0.613  0.0000  0.1264  1.0190
  131DMF     C2 2052   0.459   3.431   0.550  0.3609  0.3858 -0.6003
  131DMF     C3 2053   0.662   3.516   0.675  0.2082  0.2998 -0.2309
  131DMF     O1 2054   0.774   3.504   0.718  1.0810  0.3705  0.0858
  131DMF     H1 2055   0.607   3.189   0.667 -0.5935 -0.4332 -0.9065
  131DMF     H2 2056   0.750   3.277   0.625  0.5758 -0.3876 -0.4081
  131DMF     H3 2057   0.629   3.230   0.499 -0.9903 -0.6484 -0.2532
  131DMF     H4 2058   0.472   3.478   0.451  0.1683 -4.3191 -2.9763
  131DMF     H5 2059   0.400   3.496   0.615  2.8736  0.6355  1.5218
  131DMF     H6 2060   0.403   3.340   0.526  0.2377 -0.2814  2.1288
  131DMF     H7 2061   0.604   3.610   0.674 -0.7876 -0.3036 -1.9532
  132DMF     C1 2062   0.433   0.520   1.391 -0.8563  0.0319 -0.2924
  132DMF     N1 2063   0.298   0.570   1.405 -0.2212 -0.3539 -0.5308
  132DMF     C2 2064   0.250   0.606   1.542  0.1617  0.2621 -0.2651
  132DMF     C3 2065   0.207   0.530   1.310  0.5614 -0.3055 -0.3394
  132DMF     O1 2066   0.251   0.486   1.202 -0.1115  0.5378  0.7206
  132DMF     H1 2067   0.488   0.568   1.309  2.0068 -0.0944  1.5180
  132DMF     H2 2068   0.425   0.414   1.366 -1.1777  0.0497 -0.2682
  132DMF     H3 2069   0.488   0.533   1.485  0.3808 -0.7210 -0.9064
  132DMF     H4 2070   0.160   0.668   1.531  0.0567 -0.1202 -1.6056
  132DMF     H5 2071   0.326   0.666   1.594  0.0775  0.8613 -0.8256
  132DMF     H6 2072   0.224   0.512   1.592 -1.4737  1.2473  0.7639
  132DMF     H7 2073   0.099   0.529   1.331  0.2865  1.5667 -1.5560
  133DMF     C1 2074   1.963   0.847   0.459  0.2282  0.4232  0.0981
  133DMF     N1 2075   1.826   0.894   0.466 -0.1156 -0.0868 -0.0848
  133DMF     C2 2076   1.781   0.961   0.581 -0.3628 -0.1037 -0.3363
  133DMF     C3 2077   1.757   0.913   0.344 -0.0712  0.1931 -0.4289
  133DMF     O1 2078   1.798   0.879   0.235 -0.1469  0.1383  0.6574
  133DMF     H1 2079   1.985   0.787   0.369  0.0589  0.2702  0.1591
  133DMF     H2 2080   1.979   0.773   0.538  1.8553  0.1523 -0.4470
  133DMF     H3 2081   2.034   0.930   0.470  0.9023 -0.1757  0.3823
  133DMF     H4 2082   1.839   0.929   0.668 -2.7113  0.3455  1.4250
  133DMF     H5 2083   1.675   0.942   0.600 -0.8101  1.6699 -0.8899
  133DMF     H6 2084   1.788   1.070   0.566 -1.9653  0.3088  1.8252
  133DMF     H7 2085   1.659   0.960   0.364 -0.3124 -0.1759 -0.7366
  134DMF     C1 2086   3.352   3.372   1.485  0.3440  0.6116 -0.4512
  134DMF     N1 2087   3.392   3.232   1.494 -0.2944  0.4955  0.9471
  134DMF     C2 2088   3.290   3.134   1.552 -0.2113 -0.3008  0.4656
  134DMF     C3 2089   3.520   3.192   1.448 -0.1847  0.8042  0.1624
  134DMF     O1 2090   3.600   3.265   1.394 -0.4234  0.2296  0.0559
  134DMF     H1 2091   3.349   3.412   1.587  2.8572 -1.8901  0.6866
  134DMF     H2 2092   3.254   3.375   1.436  0.6529  1.0708 -1.0567
  134DMF     H3 2093   3.426   3.427   1.424  1.3299 -0.5977 -0.3662
  134DMF     H4 2094   3.281   3.048   1.485 -1.1100 -0.8469  1.2730
  134DMF     H5 2095   3.194   3.184   1.572 -0.1312  0.8895 -1.9500
  134DMF     H6 2096   3.321   3.107   1.654  0.2863  1.8512  0.9095
  134DMF     H7 2097   3.528   3.081   1.453  1.3479  0.9553  1.1458
  135DMF     C1 2098   2.915   1.402   3.226  0.2788 -0.3896 -0.0222
  135DMF     N1 2099   3.049   1.465   3.210 -0.1270  0.6630  0.9967
  135DMF     C2 2100   3.053   1.608   3.156  0.4105  0.7481 -0.6610
  135DMF     C3 2101   3.162   1.386   3.243 -0.2858 -0.6770 -0.7064
  135DMF     O1 2102   3.157   1.270   3.272 -0.4362  0.0907 -0.2576
  135DMF     H1 2103   2.902   1.309   3.170 -3.5005  0.9630 -1.5773
  135DMF     H2 2104   2.830   1.471   3.219 -0.7060 -1.6169 -0.2923
  135DMF     H3 2105   2.904   1.363   3.328  1.2017  0.3484  0.3631
  135DMF     H4 2106   2.976   1.624   3.080 -0.3764 -1.2259 -0.2861
  135DMF     H5 2107   3.154   1.627   3.117  0.3185 -0.6151 -1.5635
  135DMF     H6 2108   3.042   1.681   3.238  0.2225  0.4412 -0.4142
  135DMF     H7 2109   3.257   1.441   3.232 -0.8971  0.0201 -2.5844
  136DMF     C1 2110   2.882   0.043   0.019 -0.4504 -0.5672 -0.3827
  136DMF     N1 2111   2.788  -0.013   0.112  0.0393  0.2488  0.4468
  136DMF     C2 2112   2.672   0.067   0.149 -0.1310  0.4695  0.8395
  136DMF     C3 2113   2.805  -0.147   0.162 -0.0932  0.2509 -0.1102
  136DMF     O1 2114   2.895  -0.216   0.110  0.4638 -0.5416  0.0709
  136DMF     H1 2115   2.837   0.138  -0.013  1.1168  1.4234  2.9942
  136DMF     H2 2116   2.905  -0.032  -0.057 -0.8672  0.2949 -1.3767
  136DMF     H3 2117   2.974   0.072   0.072 -0.7711 -0.8272  0.3158
  136DMF     H4 2118   2.593  -0.001   0.184 -1.5929  1.1416 -1.1133
  136DMF     H5 2119   2.636   0.136   0.073 -0.9198  1.5883  2.2076
  136DMF     H6 2120   2.699   0.123   0.240 -1.5764  0.8908  1.0239
  136DMF     H7 2121   2.722  -0.189   0.222 -1.4624  1.5718 -1.0118
  137DMF     C1 2122   1.266   3.040   1.027 -0.8692 -0.1164 -0.1202
  137DMF     N1 2123   1.365   3.136   1.081 -0.2128 -0.8484 -0.6341
  137DMF     C2 2124   1.340   3.282   1.061  0.3446  0.4825 -0.2568
  137DMF     C3 2125   1.464   3.097   1.166  0.2705 -0.6830  0.1045
  137DMF     O1 2126   1.484   2.977   1.186  0.8305  0.6036 -0.4808
  137DMF     H1 2127   1.291   2.990   0.933  1.7150 -0.2827  0.6029
  137DMF     H2 2128   1.175   3.097   1.004 -1.2268  0.1257  1.7760
  137DMF     H3 2129   1.228   2.976   1.107  2.2337 -2.5375 -0.4874
  137DMF     H4 2130   1.438   3.328   1.047  1.0699 -1.3583 -1.3808
  137DMF     H5 2131   1.285   3.322   1.147 -0.1351  0.3463 -0.4922
  137DMF     H6 2132   1.279   3.294   0.970 -0.6776 -1.3025  0.1788
  137DMF     H7 2133   1.516   3.179   1.219  1.8906 -0.2077 -2.1533
  138DMF     C1 2134   1.843   1.518   3.558  0.0642 -0.0669 -0.1839
  138DMF     N1 2135   1.985   1.542   3.591  0.3244 -0.7470 -0.0011
  138DMF     C2 2136   2.029   1.514   3.724  0.1314 -0.2957 -0.6507
  138DMF     C3 2137   2.078   1.585   3.490 -0.3998  0.4740 -0.8417
  138DMF     O1 2138   2.050   1.599   3.377  0.4221 -0.4215  0.2349
  138DMF     H1 2139   1.769   1.560   3.627 -1.9234  0.1436 -2.3535
  138DMF     H2 2140   1.829   1.409   3.566 -1.7547  0.0751 -1.0750
  138DMF     H3 2141   1.812   1.547   3.456 -1.1347 -0.7633 -0.0292
  138DMF     H4 2142   2.113   1.575   3.760 -0.0058 -0.3797 -0.1912
  138DMF     H5 2143   2.065   1.411   3.712 -1.5642 -0.7044 -2.4637
  138DMF     H6 2144   1.948   1.513   3.797 -0.2704 -0.4570 -1.1010
  138DMF     H7 2145   2.181   1.598   3.529  0.3540  1.2018 -3.0144
  139DMF     C1 2146   1.717   2.070   1.406 -1.2036  0.4569  0.5321
  139DMF     N1 2147   1.594   2.092   1.491  0.3862 -0.3999  0.5330
  139DMF     C2 2148   1.555   2.236   1.526 -0.5636  0.0679 -0.7814
  139DMF     C3 2149   1.519   1.986   1.543 -0.5283  0.2862 -0.4114
  139DMF     O1 2150   1.556   1.870   1.523 -0.5147  0.6733 -0.0088
  139DMF     H1 2151   1.699   2.014   1.314  0.9271  0.9450 -0.2150
  139DMF     H2 2152   1.777   1.992   1.455  0.6406  1.1561 -0.5248
  139DMF     H3 2153   1.775   2.161   1.387  0.3093 -0.0198  2.6075
  139DMF     H4 2154   1.567   2.302   1.439  0.1835 -1.4788 -1.8707
  139DMF     H5 2155   1.632   2.282   1.590 -1.5107  0.3041  0.1848
  139DMF     H6 2156   1.462   2.252   1.581 -0.0047  3.6779 -0.7660
  139DMF     H7 2157   1.436   2.018   1.609 -2.5658  1.4533 -3.4185
  140DMF     C1 2158   0.342   3.251   0.060  0.4424  0.3421  0.4419
  140DMF     N1 2159   0.442   3.165   0.130  0.3297  0.2051 -0.1243
  140DMF     C2 2160   0.499   3.225   0.254  0.2619  0.4071  0.4608
  140DMF     C3 2161   0.459   3.029   0.107  0.8202 -0.1954 -0.2587
  140DMF     O1 2162   0.394   2.973   0.013 -0.5477  0.5268 -0.6779
  140DMF     H1 2163   0.395   3.321  -0.004  0.0676  2.3456  2.2815
  140DMF     H2 2164   0.293   3.316   0.133  0.0903 -0.1072  0.6113
  140DMF     H3 2165   0.268   3.191   0.004  0.2565 -0.3402  1.4005
  140DMF     H4 2166   0.427   3.206   0.335 -0.1309  0.8273  0.2090
  140DMF     H5 2167   0.508   3.335   0.249  2.3555  0.4980  4.0012
  140DMF     H6 2168   0.596   3.177   0.273  0.8598  0.8282 -1.4872
  140DMF     H7 2169   0.524   2.987   0.187  2.2354  0.3049 -1.1311
  141DMF     C1 2170   1.123   1.746   0.079 -0.1430 -0.0827  0.6392
  141DMF     N1 2171   1.151   1.607   0.123 -0.3534  0.3373  0.4627
  141DMF     C2 2172   1.038   1.511   0.149  0.6254 -0.0779  0.6975
  141DMF     C3 2173   1.282   1.560   0.127  0.2762 -0.7887  0.0499
  141DMF     O1 2174   1.382   1.633   0.110 -0.0235 -0.2772 -0.2015
  141DMF     H1 2175   1.167   1.824   0.142 -2.0033 -0.3044  2.2596
  141DMF     H2 2176   1.016   1.763   0.092  0.2232  1.4926  1.6970
  141DMF     H3 2177   1.163   1.751  -0.023 -0.1690  1.3586  0.7004
  141DMF     H4 2178   1.038   1.481   0.255  0.4026 -1.3776  0.3342
  141DMF     H5 2179   1.042   1.425   0.081  2.9674  0.5570 -0.0050
  141DMF     H6 2180   0.945   1.567   0.133  0.5982 -0.6416 -1.2600
  141DMF     H7 2181   1.285   1.451   0.148  0.6848 -1.0021 -1.0742
  142DMF     C1 2182   3.334   1.781   0.683  0.0417 -0.0088  0.2443
  142DMF     N1 2183   3.381   1.824   0.549  0.1100 -0.4495  0.5438
  142DMF     C2 2184   3.297   1.792   0.431 -0.0788  0.5467 -0.0893
  142DMF     C3 2185   3.505   1.892   0.533 -0.3713 -0.4314  0.8996
  142DMF     O1 2186   3.589   1.911   0.620 -0.2873 -0.1095  1.0333
  142DMF     H1 2187   3.415   1.746   0.748  0.1796 -0.5936 -0.2362
  142DMF     H2 2188   3.259   1.702   0.673 -0.2016  0.2965 -0.3366
  142DMF     H3 2189   3.288   1.867   0.734 -0.8759 -0.9315  0.9850
  142DMF     H4 2190   3.210   1.730   0.454  0.2434  0.3525  0.6316
  142DMF     H5 2191   3.356   1.737   0.357  2.0586 -0.5639  2.3509
  142DMF     H6 2192   3.257   1.885   0.387  0.3197  0.0606 -1.4981
  142DMF     H7 2193   3.525   1.940   0.435  2.1050 -2.1421  0.5421
  143DMF     C1 2194   1.656   1.513   1.518  0.2684  0.5702  1.1957
  143DMF     N1 2195   1.788   1.569   1.487 -0.3405  0.0676 -0.1444
  143DMF     C2 2196   1.828   1.694   1.557  0.4650 -0.2711 -0.6940
  143DMF     C3 2197   1.865   1.508   1.388 -0.6588 -0.9309 -0.7459
  143DMF     O1 2198   1.823   1.430   1.308  0.5558  0.1469 -0.0283
  143DMF     H1 2199   1.594   1.502   1.428  1.0718 -1.3470  0.8584
  143DMF     H2 2200   1.610   1.570   1.600  0.7646  1.3630  0.9296
  143DMF     H3 2201   1.667   1.409   1.551 -1.3579 -0.2016 -0.5373
  143DMF     H4 2202   1.909   1.676   1.629 -1.1557 -1.9321  0.7345
  143DMF     H5 2203   1.737   1.729   1.606  0.7529 -1.2197  0.5534
  143DMF     H6 2204   1.868   1.771   1.490  4.0897  0.1537  1.7677
  143DMF     H7 2205   1.967   1.550   1.379 -1.2888  0.5618 -1.2325
  144DMF     C1 2206   0.007   2.448   0.306  0.0255  0.5916 -1.1035
  144DMF     N1 2207   0.110   2.403   0.399 -0.3183 -0.0076 -0.4078
  144DMF     C2 2208   0.154   2.268   0.400 -0.4113 -0.3253  0.3521
  144DMF     C3 2209   0.191   2.499   0.475  0.2705 -0.4120  0.7509
  144DMF     O1 2210   0.160   2.618   0.470 -0.2070  0.0803  0.0285
  144DMF     H1 2211   0.058   2.521   0.242 -0.4513  0.3154 -1.8051
  144DMF     H2 2212  -0.077   2.487   0.365  0.1137  0.5598 -0.9563
  144DMF     H3 2213  -0.041   2.369   0.247  1.7535 -1.0149 -0.3999
  144DMF     H4 2214   0.262   2.253   0.387 -0.3054 -1.9193  2.7312
  144DMF     H5 2215   0.108   2.207   0.322 -0.2054  0.7821 -0.6417
  144DMF     H6 2216   0.115   2.222   0.491  0.2103 -1.7659 -0.1014
  144DMF     H7 2217   0.253   2.448   0.551 -0.8329 -1.5234  0.9167
  145DMF     C1 2218   0.993   2.354   1.096 -0.5668 -0.3056  0.1310
  145DMF     N1 2219   0.860   2.406   1.146 -0.1927  0.1857 -0.3599
  145DMF     C2 2220   0.861   2.526   1.231 -0.2271 -0.6289  0.1979
  145DMF     C3 2221   0.744   2.330   1.136  0.2277  0.1106  0.3633
  145DMF     O1 2222   0.746   2.212   1.092 -0.3146 -0.0450  0.1816
  145DMF     H1 2223   0.987   2.253   1.055  1.5913 -0.2851 -0.3219
  145DMF     H2 2224   1.067   2.343   1.176 -0.2030 -1.9278 -0.4076
  145DMF     H3 2225   1.036   2.428   1.027 -2.7385  0.5375 -0.3714
  145DMF     H4 2226   0.942   2.529   1.305 -0.0969 -4.1539  0.2649
  145DMF     H5 2227   0.768   2.540   1.287  0.7034 -2.6989  2.3278
  145DMF     H6 2228   0.873   2.613   1.165 -1.5227 -0.5115  0.1032
  145DMF     H7 2229   0.661   2.383   1.185  0.5108  1.9078 -1.0517
  146DMF     C1 2230   0.855   2.564   0.531  0.2047  0.5702 -0.0035
  146DMF     N1 2231   0.762   2.510   0.634 -0.1944  0.2108  0.1713
  146DMF     C2 2232   0.823   2.473   0.767 -0.5127 -0.0106 -1.1328
  146DMF     C3 2233   0.623   2.512   0.620  0.1228 -0.4853  0.5222
  146DMF     O1 2234   0.578   2.574   0.526 -0.4063 -0.2463  0.0379
  146DMF     H1 2235   0.866   2.489   0.451  2.6701  0.7781  0.1085
  146DMF     H2 2236   0.956   2.584   0.568  0.0952  0.3231  0.4326
  146DMF     H3 2237   0.810   2.655   0.489 -0.8946  1.4299  2.9012
  146DMF     H4 2238   0.918   2.526   0.782 -0.6635 -0.4132  1.5108
  146DMF     H5 2239   0.843   2.366   0.763  0.2880  0.1080 -0.2509
  146DMF     H6 2240   0.750   2.500   0.845 -0.0626 -0.5404 -0.5248
  146DMF     H7 2241   0.567   2.456   0.698  0.2264 -1.3893 -0.0467
  147DMF     C1 2242   2.109   3.282   0.700  0.3823  0.6047 -0.1995
  147DMF     N1 2243   2.125   3.423   0.671  0.3033 -0.2059  0.6757
  147DMF     C2 2244   2.206   3.462   0.558 -1.0508  0.1793  0.0811
  147DMF     C3 2245   2.089   3.524   0.759  0.3311 -0.3932  0.1212
  147DMF     O1 2246   2.031   3.506   0.863  0.8233  0.0176  0.8429
  147DMF     H1 2247   2.087   3.236   0.603  1.6281  0.0376 -0.2170
  147DMF     H2 2248   2.018   3.272   0.761  0.1179  2.3052 -0.2830
  147DMF     H3 2249   2.195   3.237   0.750 -0.5508  0.4408  1.2867
  147DMF     H4 2250   2.258   3.371   0.527  2.5047  1.9946  0.4011
  147DMF     H5 2251   2.279   3.536   0.594 -0.1456 -0.1313 -1.0784
  147DMF     H6 2252   2.154   3.507   0.473  2.3628  1.0443 -1.6155
  147DMF     H7 2253   2.118   3.627   0.730 -1.6477  0.6811  1.8453
  148DMF     C1 2254   2.128   1.237   1.181 -0.0964 -0.0303  0.3676
  148DMF     N1 2255   2.097   1.092   1.168  0.0345  0.7773  0.0860
  148DMF     C2 2256   1.966   1.043   1.195 -0.2741 -0.6579 -0.6592
  148DMF     C3 2257   2.175   1.016   1.084  0.9401  0.1412 -1.1379
  148DMF     O1 2258   2.280   1.053   1.032  0.0893 -0.4286 -0.5510
  148DMF     H1 2259   2.161   1.278   1.085 -0.2637 -1.1073 -0.1612
  148DMF     H2 2260   2.197   1.252   1.265 -1.2939  0.2051  1.3241
  148DMF     H3 2261   2.037   1.287   1.214 -0.4242 -1.1543  1.2011
  148DMF     H4 2262   1.941   1.054   1.301 -3.4732 -0.9905 -1.3335
  148DMF     H5 2263   1.956   0.938   1.164  1.5036 -0.8114 -0.7707
  148DMF     H6 2264   1.888   1.101   1.144 -0.0473  1.1104  0.9356
  148DMF     H7 2265   2.136   0.916   1.057  1.6516 -0.1241 -1.2005
  149DMF     C1 2266   2.340   1.204   1.524 -0.3069 -0.0614  0.4680
  149DMF     N1 2267   2.335   1.349   1.539 -0.1429  0.5224 -0.4515
  149DMF     C2 2268   2.468   1.427   1.542  0.1637  0.5849 -0.1951
  149DMF     C3 2269   2.214   1.419   1.553 -0.6258  0.3924 -0.4608
  149DMF     O1 2270   2.109   1.362   1.537 -0.0550  0.0326  0.2689
  149DMF     H1 2271   2.323   1.183   1.418 -0.1966  0.7092  0.2940
  149DMF     H2 2272   2.260   1.157   1.583 -0.4608  1.7818  1.7652
  149DMF     H3 2273   2.438   1.165   1.555 -0.3171 -1.8102 -1.6394
  149DMF     H4 2274   2.523   1.367   1.469 -0.1024 -0.5412  0.5177
  149DMF     H5 2275   2.512   1.428   1.643 -0.2982 -0.5796  0.0267
  149DMF     H6 2276   2.447   1.526   1.499  1.3807  0.6294 -0.7141
  149DMF     H7 2277   2.231   1.523   1.588  0.9518  1.0160 -2.9528
  150DMF     C1 2278   2.822   2.788   0.967  0.5559  0.0390  0.3012
  150DMF     N1 2279   2.932   2.711   0.914  0.4098 -0.1511 -1.0221
  150DMF     C2 2280   3.065   2.751   0.947 -0.1546  0.0365  0.1715
  150DMF     C3 2281   2.911   2.615   0.823 -0.0749 -0.2199  0.6094
  150DMF     O1 2282   2.802   2.564   0.799  0.2488  0.0349  0.5827
  150DMF     H1 2283   2.773   2.727   1.044  1.2022 -1.4660 -0.4595
  150DMF     H2 2284   2.739   2.801   0.896  0.0598 -1.0997  0.6628
  150DMF     H3 2285   2.860   2.887   0.994  0.4670  0.3669 -0.7626
  150DMF     H4 2286   3.147   2.679   0.942  1.5899  2.1479 -4.2260
  150DMF     H5 2287   3.073   2.803   1.043  0.1740  1.4604 -0.6076
  150DMF     H6 2288   3.086   2.833   0.877 -0.6141  1.0963  1.2508
  150DMF     H7 2289   3.002   2.590   0.765  1.6865  1.0001  2.7991
  151DMF     C1 2290   0.356   0.925   0.893  0.3547 -0.7412 -0.0849
  151DMF     N1 2291   0.422   0.817   0.971 -0.1480  0.1254  0.1526
  151DMF     C2 2292   0.451   0.834   1.114 -0.7154 -0.0791  0.0709
  151DMF     C3 2293   0.424   0.689   0.913  0.1467 -0.5055 -0.5369
  151DMF     O1 2294   0.392   0.674   0.801  0.2662  0.4756  0.5119
  151DMF     H1 2295   0.349   1.015   0.954  1.2830 -0.1137 -0.8894
  151DMF     H2 2296   0.253   0.898   0.865 -0.7610  2.2005  1.0078
  151DMF     H3 2297   0.414   0.942   0.802 -1.0824  0.8047 -0.7221
  151DMF     H4 2298   0.411   0.749   1.171 -0.9890 -1.9029 -2.7256
  151DMF     H5 2299   0.405   0.927   1.150  1.5752  1.7845 -1.6680
  151DMF     H6 2300   0.556   0.832   1.145 -0.7833 -1.9885  0.2286
  151DMF     H7 2301   0.459   0.610   0.982 -2.2999 -1.2437 -0.1127
  152DMF     C1 2302   1.175   2.173   0.251  0.1836  0.6599 -0.3619
  152DMF     N1 2303   1.248   2.172   0.382 -0.6857 -0.3852 -0.1171
  152DMF     C2 2304   1.167   2.153   0.500  0.3654  0.5188  0.2579
  152DMF     C3 2305   1.385   2.208   0.389  0.4460 -0.3963  0.4082
  152DMF     O1 2306   1.454   2.230   0.290  0.3730  0.6839  0.2045
  152DMF     H1 2307   1.222   2.099   0.184 -1.4481  0.7072 -1.5792
  152DMF     H2 2308   1.171   2.269   0.199 -2.6930  0.9267  0.2775
  152DMF     H3 2309   1.074   2.132   0.258  0.9440 -1.3887 -0.9741
  152DMF     H4 2310   1.084   2.223   0.512  1.0069  1.3142  0.1197
  152DMF     H5 2311   1.229   2.153   0.591  1.6096  0.6178 -0.5768
  152DMF     H6 2312   1.129   2.050   0.494 -2.7214  1.6683 -0.6236
  152DMF     H7 2313   1.426   2.204   0.492  1.6393  0.5244 -0.0170
  153DMF     C1 2314   0.849   1.235   0.283 -0.3246 -0.4072  0.8429
  153DMF     N1 2315   0.805   1.136   0.181  0.1789  0.2685  0.2243
  153DMF     C2 2316   0.667   1.153   0.126 -1.3025  0.2966 -0.4358
  153DMF     C3 2317   0.884   1.044   0.122  0.0892  0.3553  0.0871
  153DMF     O1 2318   0.999   1.028   0.159 -0.3896 -0.5511 -0.0700
  153DMF     H1 2319   0.958   1.226   0.295 -0.1423 -0.3848 -0.6646
  153DMF     H2 2320   0.810   1.216   0.383  0.5107 -2.6143  0.7945
  153DMF     H3 2321   0.828   1.336   0.248  0.6497 -0.7435 -0.7676
  153DMF     H4 2322   0.612   1.060   0.108 -1.7234  0.2728  0.9342
  153DMF     H5 2323   0.667   1.217   0.036  0.8844  1.3937  0.3226
  153DMF     H6 2324   0.605   1.209   0.197  1.3142  1.2727  1.1368
  153DMF     H7 2325   0.832   0.982   0.047  0.5303 -3.0635  2.4939
  154DMF     C1 2326   0.815   0.769   3.611 -0.2233 -0.3186 -0.6398
  154DMF     N1 2327   0.691   0.703   3.638  0.1335  0.7266 -0.2075
  154DMF     C2 2328   0.673   0.576   3.562  0.3607  0.8844  0.0246
  154DMF     C3 2329   0.626   0.710   3.764  0.4379  0.5849 -0.4540
  154DMF     O1 2330   0.646   0.804   3.833  0.1808  0.3766 -0.2146
  154DMF     H1 2331   0.893   0.743   3.683  0.9042  0.9979 -1.3539
  154DMF     H2 2332   0.795   0.877   3.622  2.0256  0.1983 -1.3543
  154DMF     H3 2333   0.841   0.760   3.504  1.0754  1.5491 -0.5191
  154DMF     H4 2334   0.679   0.490   3.630  0.2029 -0.6158 -1.8418
  154DMF     H5 2335   0.748   0.556   3.485  1.7351 -0.9239  1.7555
  154DMF     H6 2336   0.574   0.577   3.514 -0.0138 -0.8847  0.7229
  154DMF     H7 2337   0.553   0.628   3.771 -0.7620  1.7540  1.3004
  155DMF     C1 2338   0.013   0.706   0.477  0.0919 -0.4998 -0.2527
  155DMF     N1 2339  -0.018   0.841   0.431  0.0320 -0.0169  0.2239
  155DMF     C2 2340  -0.003   0.876   0.287  0.4105 -0.4365 -0.4236
  155DMF     C3 2341  -0.035   0.939   0.523 -0.4755 -0.4274  0.4608
  155DMF     O1 2342  -0.031   0.924   0.649 -0.2916 -0.0947 -0.1196
  155DMF     H1 2343   0.079   0.699   0.563  0.0382 -1.5799 -0.2975
  155DMF     H2 2344   0.059   0.651   0.394  0.4772  0.1355 -0.4608
  155DMF     H3 2345  -0.086   0.659   0.486 -0.5459  0.6451 -1.1020
  155DMF     H4 2346   0.069   0.813   0.233  0.4465 -1.1872  0.4917
  155DMF     H5 2347   0.027   0.980   0.272 -0.1811 -0.3671 -1.1839
  155DMF     H6 2348  -0.101   0.878   0.237 -0.4051 -0.8811  1.1073
  155DMF     H7 2349  -0.040   1.030   0.461 -1.6649 -1.4329 -0.9350
  156DMF     C1 2350   1.656   0.086   1.187 -0.4839 -0.7851 -0.3362
  156DMF     N1 2351   1.792   0.043   1.159  0.0071  0.5119 -0.0007
  156DMF     C2 2352   1.883   0.147   1.156 -1.1706 -0.2032  0.0260
  156DMF     C3 2353   1.826  -0.077   1.114  0.2613 -0.2541 -0.0888
  156DMF     O1 2354   1.742  -0.162   1.101 -0.6006 -0.0681  0.3356
  156DMF     H1 2355   1.640   0.194   1.174 -0.1548 -0.8414 -1.2780
  156DMF     H2 2356   1.647   0.078   1.296 -0.3914  2.8124 -0.0283
  156DMF     H3 2357   1.587   0.019   1.133  1.0301 -0.7695 -2.3249
  156DMF     H4 2358   1.984   0.106   1.142 -1.7671 -1.7108 -0.0133
  156DMF     H5 2359   1.891   0.208   1.246 -0.8230 -0.8432  0.4327
  156DMF     H6 2360   1.848   0.214   1.076  0.5284  0.3615 -0.2558
  156DMF     H7 2361   1.932  -0.106   1.099  0.5037 -0.0054  1.0775
  157DMF     C1 2362   1.165   0.543   1.263 -0.8189  0.8720 -0.0588
  157DMF     N1 2363   1.260   0.437   1.238 -0.1121  0.3929  0.0565
  157DMF     C2 2364   1.214   0.297   1.248  0.0307 -0.7180 -0.2405
  157DMF     C3 2365   1.385   0.471   1.184  0.3567 -0.2356  0.0141
  157DMF     O1 2366   1.418   0.584   1.150  0.3874 -0.4725  0.4157
  157DMF     H1 2367   1.113   0.553   1.167 -0.1979 -1.0989 -0.6103
  157DMF     H2 2368   1.221   0.633   1.291  1.7561 -1.5307  2.8789
  157DMF     H3 2369   1.089   0.517   1.338 -1.0847  0.8421 -0.3360
  157DMF     H4 2370   1.278   0.236   1.313  0.9318 -1.9434 -2.2428
  157DMF     H5 2371   1.218   0.259   1.145 -0.0393  0.3706 -0.6563
  157DMF     H6 2372   1.115   0.289   1.295 -0.0876 -0.5029 -0.4506
  157DMF     H7 2373   1.460   0.393   1.163  2.6985  1.9827 -0.0811
  158DMF     C1 2374   2.599   1.714   2.509  0.2575 -0.0768 -0.5605
  158DMF     N1 2375   2.605   1.611   2.404 -0.1481 -0.0640  0.2175
  158DMF     C2 2376   2.601   1.475   2.449  0.0518 -0.2679  0.5771
  158DMF     C3 2377   2.603   1.649   2.270 -0.0231 -0.0159 -0.0427
  158DMF     O1 2378   2.619   1.767   2.236  0.2908 -0.8774  0.1684
  158DMF     H1 2379   2.538   1.801   2.480  1.7263  0.6299 -1.5952
  158DMF     H2 2380   2.698   1.752   2.535 -0.0384  0.9903 -0.9681
  158DMF     H3 2381   2.555   1.673   2.601  0.4825 -1.3711 -1.0196
  158DMF     H4 2382   2.700   1.430   2.469  0.1822 -0.2108  0.0678
  158DMF     H5 2383   2.551   1.416   2.372  0.5240 -1.6055  1.2737
  158DMF     H6 2384   2.532   1.468   2.534  0.7384  0.4108  1.2082
  158DMF     H7 2385   2.595   1.565   2.198  2.9988  1.0072 -1.6680
  159DMF     C1 2386   2.539   2.554   0.280 -0.0625 -0.5466  0.6071
  159DMF     N1 2387   2.638   2.612   0.374  0.1697 -0.0299  0.1859
  159DMF     C2 2388   2.586   2.644   0.505 -0.4237 -0.0143 -0.3578
  159DMF     C3 2389   2.774   2.604   0.345  0.1887 -0.0084  0.0525
  159DMF     O1 2390   2.808   2.556   0.241 -0.1824  0.1922  0.0679
  159DMF     H1 2391   2.435   2.566   0.314 -0.3575 -1.7945  0.1287
  159DMF     H2 2392   2.556   2.448   0.260 -1.3276 -1.0244  1.9872
  159DMF     H3 2393   2.535   2.613   0.188 -1.2000 -0.9908  0.3591
  159DMF     H4 2394   2.507   2.573   0.532 -1.1481  1.2764  0.9630
  159DMF     H5 2395   2.545   2.746   0.508  1.8452  0.8759  2.6715
  159DMF     H6 2396   2.667   2.642   0.579 -1.6551 -1.8686  0.9501
  159DMF     H7 2397   2.843   2.641   0.423  0.7062 -0.6566 -0.0964
  160DMF     C1 2398   0.128   1.819   2.894  0.1408  0.4472 -0.6574
  160DMF     N1 2399   0.011   1.893   2.945 -0.1281  0.3886 -0.4475
  160DMF     C2 2400  -0.112   1.815   2.941  0.0683 -0.8794  0.4159
  160DMF     C3 2401   0.010   2.026   2.967  0.3869  0.2690  0.9018
  160DMF     O1 2402   0.112   2.095   2.967 -0.5038  0.0472 -0.3473
  160DMF     H1 2403   0.180   1.879   2.819 -1.2781 -0.6256 -2.5572
  160DMF     H2 2404   0.098   1.728   2.841  1.2364  0.6106 -1.5788
  160DMF     H3 2405   0.199   1.798   2.975  0.7399  0.8389 -1.0821
  160DMF     H4 2406  -0.091   1.708   2.927  0.9118 -0.8968  1.6467
  160DMF     H5 2407  -0.183   1.851   2.866  0.6803 -0.5033  0.0191
  160DMF     H6 2408  -0.164   1.825   3.037 -0.6930  0.5323 -0.1327
  160DMF     H7 2409  -0.089   2.067   2.995 -0.0314  0.1957 -0.4028
  161DMF     C1 2410   3.243   2.192   2.357  0.4915  0.0638 -0.2514
  161DMF     N1 2411   3.350   2.269   2.295  0.2150 -0.5187 -0.1334
  161DMF     C2 2412   3.484   2.206   2.280  0.0586  0.3777  0.2672
  161DMF     C3 2413   3.327   2.400   2.250  0.3651 -0.6017  0.2993
  161DMF     O1 2414   3.213   2.445   2.250  0.6809  0.2544  1.0007
  161DMF     H1 2415   3.165   2.170   2.283  1.6311 -0.5930 -1.2603
  161DMF     H2 2416   3.190   2.255   2.431  1.3675  0.4218  0.0800
  161DMF     H3 2417   3.274   2.097   2.402  1.0856  0.4276  0.1076
  161DMF     H4 2418   3.480   2.129   2.201 -1.6069 -0.4569  1.1422
  161DMF     H5 2419   3.504   2.151   2.372  0.9294 -1.2121 -0.8333
  161DMF     H6 2420   3.565   2.276   2.260  0.3937 -0.0816  0.0036
  161DMF     H7 2421   3.413   2.460   2.215  0.5075 -1.6175 -1.1660
  162DMF     C1 2422   3.105   0.602   2.315  0.0227  0.8459 -0.0100
  162DMF     N1 2423   3.240   0.572   2.260 -0.1682 -0.1973  0.5911
  162DMF     C2 2424   3.329   0.688   2.222  0.7452  0.1367  0.0111
  162DMF     C3 2425   3.284   0.450   2.229  0.0042  0.8161  0.4764
  162DMF     O1 2426   3.214   0.351   2.256 -0.0335  0.1942  0.3087
  162DMF     H1 2427   3.078   0.706   2.293  0.4311  1.7922  3.6526
  162DMF     H2 2428   3.092   0.578   2.421  1.5851 -3.0198 -0.5864
  162DMF     H3 2429   3.046   0.533   2.254  0.5784  1.0795 -0.8152
  162DMF     H4 2430   3.414   0.647   2.167  0.0688 -1.1615 -0.0939
  162DMF     H5 2431   3.378   0.737   2.307  1.3334 -1.1596  0.4383
  162DMF     H6 2432   3.270   0.763   2.168 -0.7281 -2.0612 -1.5167
  162DMF     H7 2433   3.378   0.452   2.171 -1.3567 -0.1707 -1.8266
  163DMF     C1 2434   1.370   2.990   2.814 -0.9922  0.2286 -0.4727
  163DMF     N1 2435   1.484   2.932   2.738  0.2918 -0.0833 -0.1113
  163DMF     C2 2436   1.563   2.822   2.805 -0.9548  0.2356  0.3366
  163DMF     C3 2437   1.528   2.989   2.610 -0.7785  0.2219  0.0771
  163DMF     O1 2438   1.470   3.083   2.561  0.6322 -0.5624  0.1125
  163DMF     H1 2439   1.399   2.996   2.920  0.9558 -1.9300 -0.8312
  163DMF     H2 2440   1.283   2.927   2.796 -1.6797  1.5366 -1.8339
  163DMF     H3 2441   1.349   3.087   2.768  1.1598 -0.0562 -2.1829
  163DMF     H4 2442   1.497   2.792   2.887 -0.5807  0.5157  0.7420
  163DMF     H5 2443   1.663   2.857   2.833 -1.4613  1.0518  1.1864
  163DMF     H6 2444   1.565   2.732   2.742  0.9153  1.0005 -0.7412
  163DMF     H7 2445   1.616   2.941   2.563 -1.1321 -0.6691  0.3326
  164DMF     C1 2446   1.861   1.353   2.472  0.0128 -0.3542 -0.8842
  164DMF     N1 2447   1.820   1.224   2.414  0.0146  0.1859 -0.0391
  164DMF     C2 2448   1.760   1.118   2.502 -0.4566 -0.0555 -0.5150
  164DMF     C3 2449   1.839   1.202   2.278  0.2330 -0.1273 -0.2674
  164DMF     O1 2450   1.897   1.281   2.203 -0.1300 -0.0559 -0.2259
  164DMF     H1 2451   1.963   1.368   2.434  0.7302  0.4642  1.2708
  164DMF     H2 2452   1.855   1.358   2.581 -0.5953  3.0792 -1.0207
  164DMF     H3 2453   1.784   1.424   2.440 -2.2384 -1.2303  2.3422
  164DMF     H4 2454   1.650   1.114   2.500 -0.4848  0.6291 -0.6517
  164DMF     H5 2455   1.791   1.140   2.605 -1.0434  1.2594 -0.5955
  164DMF     H6 2456   1.808   1.029   2.460 -0.3277  0.0721 -0.6411
  164DMF     H7 2457   1.802   1.105   2.239  0.0784 -0.5041  0.7764
  165DMF     C1 2458   2.485   1.393   3.119 -0.2219 -0.0716  0.6944
  165DMF     N1 2459   2.454   1.291   3.225 -0.1945 -0.4197  0.4446
  165DMF     C2 2460   2.319   1.292   3.284 -0.4771 -0.0619  0.2165
  165DMF     C3 2461   2.555   1.208   3.269 -0.2288  0.5993  0.0880
  165DMF     O1 2462   2.672   1.203   3.228 -0.3111 -0.5425  0.2297
  165DMF     H1 2463   2.522   1.340   3.031  1.2340  0.3574  1.0370
  165DMF     H2 2464   2.562   1.459   3.162  0.7198 -0.2832 -0.6376
  165DMF     H3 2465   2.394   1.450   3.097 -0.3969 -0.0622  1.4296
  165DMF     H4 2466   2.285   1.189   3.300 -0.2547 -0.0632  0.6903
  165DMF     H5 2467   2.249   1.347   3.221  0.7905  0.9565 -0.3470
  165DMF     H6 2468   2.329   1.329   3.387  3.3122  0.8938 -0.4023
  165DMF     H7 2469   2.501   1.137   3.335 -0.3876  0.7182  0.0877
  166DMF     C1 2470   1.922   0.087   3.532 -0.2009  0.1994  0.4998
  166DMF     N1 2471   1.938  -0.052   3.487 -0.0623  0.9458 -0.5655
  166DMF     C2 2472   2.067  -0.100   3.436  1.5065  0.3466 -0.0408
  166DMF     C3 2473   1.834  -0.146   3.499  0.1242  0.9570  0.4275
  166DMF     O1 2474   1.725  -0.127   3.551 -0.5652  0.8607 -0.2049
  166DMF     H1 2475   1.867   0.079   3.627 -0.8949  2.9125  0.3745
  166DMF     H2 2476   1.859   0.151   3.469 -0.5700  1.3822  2.0315
  166DMF     H3 2477   2.016   0.138   3.555  1.2917 -2.5030  0.6648
  166DMF     H4 2478   2.082  -0.045   3.342  3.1238 -0.0104 -0.0196
  166DMF     H5 2479   2.067  -0.207   3.414 -3.8338  0.3505 -0.7512
  166DMF     H6 2480   2.149  -0.085   3.508 -0.0488 -1.5327  2.1770
  166DMF     H7 2481   1.863  -0.233   3.437  0.8740  1.7420 -0.3375
  167DMF     C1 2482   0.870   1.779   0.340 -0.9371  0.7353  0.3452
  167DMF     N1 2483   0.754   1.814   0.422 -0.0433  0.0282 -0.2828
  167DMF     C2 2484   0.623   1.779   0.373  0.7292  0.3585 -0.1999
  167DMF     C3 2485   0.770   1.863   0.551  0.5016 -0.1311  0.0999
  167DMF     O1 2486   0.877   1.889   0.588  0.4811  0.2469  0.0787
  167DMF     H1 2487   0.923   1.873   0.319 -1.4756  0.9203 -0.1922
  167DMF     H2 2488   0.843   1.733   0.244 -0.6082 -0.9671  1.0491
  167DMF     H3 2489   0.929   1.712   0.404 -1.2716  0.1259  0.0270
  167DMF     H4 2490   0.600   1.860   0.303  0.5359  0.2296 -0.2856
  167DMF     H5 2491   0.546   1.797   0.449  0.4434  1.2602 -0.6920
  167DMF     H6 2492   0.612   1.677   0.335  0.8120 -1.4838  4.3612
  167DMF     H7 2493   0.672   1.874   0.601 -0.2449 -3.9828 -0.3906
  168DMF     C1 2494   2.428   3.191   0.341 -0.6162 -0.4912 -0.5226
  168DMF     N1 2495   2.512   3.073   0.300 -0.0614 -0.1260 -0.2228
  168DMF     C2 2496   2.566   2.997   0.409 -0.6718  0.1479  0.0454
  168DMF     C3 2497   2.565   3.061   0.170 -0.3188 -0.5902  1.2687
  168DMF     O1 2498   2.517   3.125   0.076  0.2060  0.0983 -0.3187
  168DMF     H1 2499   2.328   3.146   0.350 -0.5788 -0.4525  0.1635
  168DMF     H2 2500   2.427   3.269   0.265 -0.4227 -2.6991 -2.8617
  168DMF     H3 2501   2.470   3.239   0.430  0.4271 -1.7323 -0.3409
  168DMF     H4 2502   2.493   2.992   0.491 -2.3609 -0.9476 -1.4716
  168DMF     H5 2503   2.660   3.045   0.439  0.9784 -2.3413 -1.0306
  168DMF     H6 2504   2.593   2.894   0.385 -2.5163 -0.9468  2.3933
  168DMF     H7 2505   2.658   3.001   0.160 -0.8166 -1.3002  0.8759
  169DMF     C1 2506   1.179   3.115   3.317 -0.1554 -1.0581 -0.5647
  169DMF     N1 2507   1.133   3.166   3.444  0.7677 -0.3140  0.1389
  169DMF     C2 2508   1.104   3.073   3.554  0.1622  0.1889  0.1939
  169DMF     C3 2509   1.125   3.302   3.471  0.2985 -0.2935  0.2943
  169DMF     O1 2510   1.148   3.383   3.385  0.0438 -0.4297  0.4215
  169DMF     H1 2511   1.101   3.082   3.247 -2.7142  0.8259  1.2700
  169DMF     H2 2512   1.256   3.040   3.337 -1.3296 -1.9398  0.7918
  169DMF     H3 2513   1.243   3.188   3.266 -0.5955  0.6528  1.2412
  169DMF     H4 2514   1.041   2.994   3.512  1.7654 -1.1253  0.1986
  169DMF     H5 2515   1.054   3.123   3.638  0.2824 -1.4245  1.2421
  169DMF     H6 2516   1.202   3.036   3.585  0.5585  0.6176 -0.5120
  169DMF     H7 2517   1.088   3.329   3.572 -1.8663 -0.1279 -0.5260
  170DMF     C1 2518   2.106   2.524   2.994 -0.0274 -0.1707 -0.1743
  170DMF     N1 2519   2.040   2.457   2.880  0.7953 -0.1998 -0.2709
  170DMF     C2 2520   1.927   2.522   2.815  0.2305  0.3840 -0.0890
  170DMF     C3 2521   2.064   2.319   2.852  0.0565  0.5522  0.2593
  170DMF     O1 2522   2.151   2.254   2.909  0.3801  0.2755 -0.4873
  170DMF     H1 2523   2.187   2.588   2.959 -1.4026  0.4927 -2.1745
  170DMF     H2 2524   2.158   2.459   3.066 -0.3634 -1.4304 -1.0485
  170DMF     H3 2525   2.033   2.587   3.045 -0.2402 -1.3678  1.0561
  170DMF     H4 2526   1.920   2.478   2.714 -1.4906 -0.6209  0.4528
  170DMF     H5 2527   1.953   2.629   2.809 -0.3112  0.5815  1.0394
  170DMF     H6 2528   1.837   2.503   2.874 -0.2639 -2.1897 -1.5858
  170DMF     H7 2529   1.991   2.279   2.779 -0.2537  2.7037 -0.6345
  171DMF     C1 2530   1.175   0.706   3.060  0.2689  0.0881  0.0176
  171DMF     N1 2531   1.105   0.613   2.966 -0.2661 -0.7319 -0.2292
  171DMF     C2 2532   0.965   0.651   2.934  0.2128 -0.2775  0.3913
  171DMF     C3 2533   1.162   0.487   2.931  0.6466  0.0195  0.2904
  171DMF     O1 2534   1.277   0.463   2.963 -0.0513 -0.4079 -0.5018
  171DMF     H1 2535   1.105   0.788   3.078 -0.2932 -0.0644 -1.4044
  171DMF     H2 2536   1.268   0.742   3.015 -0.3862 -1.2164 -2.4970
  171DMF     H3 2537   1.194   0.664   3.160  2.5353 -0.9478 -0.8091
  171DMF     H4 2538   0.932   0.601   2.842  0.1058  2.0750 -0.9065
  171DMF     H5 2539   0.969   0.761   2.929 -0.5798 -0.2680 -0.1814
  171DMF     H6 2540   0.903   0.623   3.020 -0.3760  0.1479  0.1121
  171DMF     H7 2541   1.083   0.427   2.883  1.2643 -0.8088  0.3061
  172DMF     C1 2542   1.445   1.685   0.484  0.1329 -0.3724 -0.5047
  172DMF     N1 2543   1.352   1.739   0.582  0.0553  0.5935  0.4196
  172DMF     C2 2544   1.263   1.642   0.648 -0.6616  0.1405  0.5546
  172DMF     C3 2545   1.348   1.879   0.608  0.5442  0.0099  0.1434
  172DMF     O1 2546   1.441   1.950   0.569 -1.4675  0.6593  0.1335
  172DMF     H1 2547   1.411   1.707   0.383  1.0650  2.7381 -0.2067
  172DMF     H2 2548   1.463   1.577   0.491  0.9070 -0.3011 -1.2420
  172DMF     H3 2549   1.543   1.733   0.496 -0.2743  1.3162 -3.6386
  172DMF     H4 2550   1.214   1.690   0.734  0.1051  1.0712  0.4847
  172DMF     H5 2551   1.320   1.559   0.692  0.1006  0.0140 -0.6440
  172DMF     H6 2552   1.191   1.596   0.579 -2.0291 -1.4155  2.9459
  172DMF     H7 2553   1.262   1.915   0.667 -0.4782 -0.4481 -1.0479
  173DMF     C1 2554   1.010   2.969   2.655  0.4202  0.3684 -0.3745
  173DMF     N1 2555   1.012   3.095   2.575  0.2808  0.2320  0.5693
  173DMF     C2 2556   1.139   3.135   2.516 -0.8343 -0.3965  0.4810
  173DMF     C3 2557   0.913   3.195   2.587  0.6493 -0.4792 -0.1744
  173DMF     O1 2558   0.806   3.170   2.624 -0.5223 -0.4667 -0.2200
  173DMF     H1 2559   0.914   2.958   2.707 -0.3516 -1.3651 -2.1110
  173DMF     H2 2560   1.084   2.977   2.735  0.3531  0.0062 -0.2774
  173DMF     H3 2561   1.022   2.880   2.592 -1.4024 -0.2315  0.1025
  173DMF     H4 2562   1.210   3.162   2.596 -0.0369 -0.6555 -0.1348
  173DMF     H5 2563   1.126   3.215   2.443  0.4483  0.3255  1.0155
  173DMF     H6 2564   1.187   3.047   2.470 -1.6557  0.8120 -2.8258
  173DMF     H7 2565   0.939   3.296   2.551 -1.0453 -0.3289 -1.0058
  174DMF     C1 2566   0.959   1.525   2.636  0.2351  0.6272 -0.3629
  174DMF     N1 2567   0.940   1.376   2.655  0.3895 -0.6225  0.1829
  174DMF     C2 2568   0.845   1.304   2.569 -0.1335 -1.2107  0.2152
  174DMF     C3 2569   0.977   1.321   2.777  0.6952 -0.1839 -0.0117
  174DMF     O1 2570   1.027   1.381   2.869 -0.4483  0.3215 -0.0204
  174DMF     H1 2571   0.865   1.564   2.677  0.0264 -2.3301  2.2162
  174DMF     H2 2572   0.974   1.547   2.530  0.4247  0.8254 -0.2943
  174DMF     H3 2573   1.052   1.557   2.684 -1.7582  2.6456  2.3607
  174DMF     H4 2574   0.800   1.370   2.493 -1.2023  0.2743  2.1121
  174DMF     H5 2575   0.762   1.258   2.623  1.2336 -1.9526  1.7068
  174DMF     H6 2576   0.900   1.226   2.514  1.9003  1.0592 -1.0915
  174DMF     H7 2577   0.933   1.219   2.782 -1.3784  0.5431 -2.2046
  175DMF     C1 2578   1.434   0.966   2.988 -0.5993 -0.3527  0.3118
  175DMF     N1 2579   1.331   1.020   3.075 -0.8656  0.4028  0.6672
  175DMF     C2 2580   1.226   1.103   3.008  0.1080  0.3541  0.2935
  175DMF     C3 2581   1.330   0.997   3.211 -0.6539 -0.4260 -0.0011
  175DMF     O1 2582   1.415   0.923   3.252  0.1613 -0.1676 -0.1382
  175DMF     H1 2583   1.520   0.926   3.044 -0.4021 -0.8511 -0.3423
  175DMF     H2 2584   1.473   1.041   2.918 -3.7118  0.0560 -1.0734
  175DMF     H3 2585   1.402   0.883   2.924 -0.9964 -1.4999  1.9721
  175DMF     H4 2586   1.270   1.198   2.976 -0.9934  1.4790  2.0423
  175DMF     H5 2587   1.149   1.120   3.084  0.5990  1.2825  0.5943
  175DMF     H6 2588   1.174   1.049   2.928 -1.1710  0.6309  0.9358
  175DMF     H7 2589   1.250   1.050   3.266  0.5000 -1.0968  2.4072
  176DMF     C1 2590   2.384   1.777   3.366 -0.5461 -0.4268 -0.5820
  176DMF     N1 2591   2.452   1.751   3.490  0.4576 -0.0526  0.0508
  176DMF     C2 2592   2.488   1.859   3.581  1.2132  0.3057  0.5178
  176DMF     C3 2593   2.508   1.620   3.523 -0.7697  0.0204  0.4335
  176DMF     O1 2594   2.489   1.529   3.450  0.5845 -0.5201 -0.2598
  176DMF     H1 2595   2.386   1.685   3.306 -1.2332 -0.9530  0.1991
  176DMF     H2 2596   2.427   1.862   3.311 -0.6234  0.0323  0.0625
  176DMF     H3 2597   2.281   1.808   3.386  0.1100  0.6692  1.2729
  176DMF     H4 2598   2.546   1.940   3.535 -0.6452  1.3909  0.0305
  176DMF     H5 2599   2.539   1.834   3.675  1.3759  2.8111  1.1526
  176DMF     H6 2600   2.393   1.902   3.615 -0.5482 -4.0226  1.2749
  176DMF     H7 2601   2.546   1.619   3.627 -0.5237  2.7383  0.4038
  177DMF     C1 2602   2.970   1.245   2.292  0.3378  0.0598  0.4119
  177DMF     N1 2603   2.909   1.103   2.265  0.2622 -0.7319  0.5144
  177DMF     C2 2604   2.765   1.094   2.246 -0.2031  0.0422  0.5898
  177DMF     C3 2605   2.976   0.981   2.254  0.0877 -0.0457  0.0160
  177DMF     O1 2606   3.097   0.970   2.240 -0.1617 -0.1222  0.0251
  177DMF     H1 2607   2.896   1.321   2.321  1.5476  0.7842  1.6878
  177DMF     H2 2608   3.013   1.271   2.195 -1.6074 -2.2816 -1.1428
  177DMF     H3 2609   3.048   1.240   2.369  0.3060 -0.7068  0.3998
  177DMF     H4 2610   2.714   1.076   2.341 -0.4141 -1.2081  0.2505
  177DMF     H5 2611   2.735   1.021   2.170 -0.5454  0.5569  0.2313
  177DMF     H6 2612   2.731   1.191   2.207  0.0647  0.2779  0.9449
  177DMF     H7 2613   2.912   0.892   2.259  1.0822 -0.7259  0.9859
  178DMF     C1 2614   2.986   3.099   2.719 -0.4257 -0.6248 -0.4043
  178DMF     N1 2615   2.879   3.050   2.818  0.0355  0.2372  0.4090
  178DMF     C2 2616   2.863   3.125   2.942  0.2395 -0.1141  0.1524
  178DMF     C3 2617   2.829   2.915   2.807 -0.8157  0.7374 -0.5855
  178DMF     O1 2618   2.856   2.842   2.717 -0.2446  0.2095  0.2862
  178DMF     H1 2619   2.965   3.064   2.617 -5.0719 -0.3193  0.3323
  178DMF     H2 2620   3.086   3.072   2.756 -0.3318 -0.9515 -0.8948
  178DMF     H3 2621   2.984   3.209   2.723 -0.8189 -0.6215 -0.6377
  178DMF     H4 2622   2.957   3.125   2.998  0.4255 -0.5014 -0.1543
  178DMF     H5 2623   2.787   3.083   3.010 -0.5369  1.4187  0.2684
  178DMF     H6 2624   2.832   3.226   2.914  0.6180  0.2736  1.1076
  178DMF     H7 2625   2.754   2.882   2.880 -2.0371  1.0717 -1.6709
  179DMF     C1 2626   0.639   2.071   2.338  0.1969  0.4584 -0.0930
  179DMF     N1 2627   0.585   2.192   2.274 -0.3738 -0.3471 -0.3795
  179DMF     C2 2628   0.671   2.308   2.277 -0.0823 -0.2642  0.1899
  179DMF     C3 2629   0.456   2.193   2.217  0.1630 -0.0132 -0.1755
  179DMF     O1 2630   0.387   2.096   2.209 -0.1524  0.6436  0.1458
  179DMF     H1 2631   0.648   2.091   2.445 -1.0225  1.3988 -0.1530
  179DMF     H2 2632   0.741   2.052   2.304 -0.8449 -4.3341 -1.0200
  179DMF     H3 2633   0.572   1.984   2.329  0.0585  0.5547 -0.0066
  179DMF     H4 2634   0.637   2.356   2.370 -1.3092  2.2232 -1.4942
  179DMF     H5 2635   0.657   2.373   2.190  1.0931 -1.4115 -0.8900
  179DMF     H6 2636   0.777   2.284   2.293 -0.2461  1.4513  4.4067
  179DMF     H7 2637   0.440   2.288   2.162  3.6201  0.2931 -0.7548
  180DMF     C1 2638   2.684   0.260   3.554  0.7807  0.0581  0.2192
  180DMF     N1 2639   2.644   0.395   3.505  0.7781  0.5276  0.7421
  180DMF     C2 2640   2.569   0.409   3.374 -0.0748 -0.5026 -0.1397
  180DMF     C3 2641   2.676   0.512   3.568 -0.0392  0.1422 -0.0888
  180DMF     O1 2642   2.740   0.513   3.676  0.2483 -0.3012 -0.0254
  180DMF     H1 2643   2.792   0.267   3.572  0.5380  2.0702  1.0153
  180DMF     H2 2644   2.664   0.186   3.476 -2.0703  0.0846  0.8652
  180DMF     H3 2645   2.620   0.244   3.642  0.6897 -1.2915 -0.0760
  180DMF     H4 2646   2.497   0.489   3.390  0.1039 -0.2408 -0.6446
  180DMF     H5 2647   2.519   0.319   3.338  0.4561 -0.7123 -0.3578
  180DMF     H6 2648   2.645   0.443   3.303  0.0378  0.3849  0.3921
  180DMF     H7 2649   2.640   0.605   3.521  3.1173  0.8726 -1.1529
  181DMF     C1 2650   2.241   2.663   2.274 -0.5297  0.6293  0.4534
  181DMF     N1 2651   2.364   2.733   2.237  0.5639 -0.6843  0.7477
  181DMF     C2 2652   2.495   2.673   2.259 -0.5841  0.4689  0.3124
  181DMF     C3 2653   2.365   2.875   2.229 -0.0057 -0.9721 -0.5552
  181DMF     O1 2654   2.259   2.937   2.218 -0.6988  0.1391  0.0880
  181DMF     H1 2655   2.270   2.586   2.346  2.4590  0.1413 -1.1474
  181DMF     H2 2656   2.206   2.610   2.184  1.7253 -3.6426  1.9184
  181DMF     H3 2657   2.162   2.725   2.317 -0.3921  0.8915  0.3323
  181DMF     H4 2658   2.520   2.682   2.365  0.1174 -0.4892  0.2379
  181DMF     H5 2659   2.571   2.727   2.201 -0.7867  1.3594  0.8745
  181DMF     H6 2660   2.495   2.569   2.225  2.4017  0.2392  0.8874
  181DMF     H7 2661   2.468   2.917   2.227 -0.2587 -0.3707 -0.9430
  182DMF     C1 2662   0.780   0.252   1.075 -0.4534  0.3590 -0.3198
  182DMF     N1 2663   0.674   0.355   1.119 -0.6454 -0.3549  0.0752
  182DMF     C2 2664   0.712   0.465   1.208 -0.0563 -0.4139 -0.1487
  182DMF     C3 2665   0.550   0.343   1.068 -0.9506 -0.4783 -0.1035
  182DMF     O1 2666   0.525   0.270   0.973  0.2612  0.1737  0.6395
  182DMF     H1 2667   0.750   0.148   1.095 -2.0260  0.7310 -0.6307
  182DMF     H2 2668   0.876   0.265   1.125 -0.2737  1.8039 -1.0141
  182DMF     H3 2669   0.800   0.280   0.971 -2.4531  1.5371 -0.4093
  182DMF     H4 2670   0.667   0.446   1.307  0.2339 -1.1226 -0.1504
  182DMF     H5 2671   0.668   0.554   1.163  0.7644  0.5792  0.9930
  182DMF     H6 2672   0.819   0.486   1.215 -0.7813  3.0622  1.7586
  182DMF     H7 2673   0.482   0.422   1.106 -0.2742  0.4694 -0.8258
  183DMF     C1 2674   1.478   2.668   3.573  0.2979  0.1197 -0.3454
  183DMF     N1 2675   1.372   2.637   3.476 -0.8988 -0.4016 -0.0804
  183DMF     C2 2676   1.320   2.492   3.484 -0.2633 -0.7212 -0.2259
  183DMF     C3 2677   1.360   2.719   3.363 -0.1285 -0.0240 -0.6757
  183DMF     O1 2678   1.428   2.820   3.347  0.6428  0.1715  0.1599
  183DMF     H1 2679   1.492   2.591   3.650 -0.1558  1.6908  1.3509
  183DMF     H2 2680   1.450   2.764   3.619 -1.1610  0.0523 -1.0530
  183DMF     H3 2681   1.569   2.687   3.514  0.3435  0.9966 -0.0050
  183DMF     H4 2682   1.362   2.447   3.575 -1.2254  0.1274  0.6543
  183DMF     H5 2683   1.362   2.438   3.398 -1.9498 -0.9214 -0.9537
  183DMF     H6 2684   1.210   2.498   3.486 -0.3741 -2.8637  2.8980
  183DMF     H7 2685   1.282   2.683   3.293  0.1542 -3.3504  0.6744
  184DMF     C1 2686   2.403   2.125   0.612  0.0730 -0.0303 -0.1197
  184DMF     N1 2687   2.455   2.257   0.628 -0.0770 -0.7100  0.3444
  184DMF     C2 2688   2.360   2.366   0.658  0.5888 -0.3152 -0.1636
  184DMF     C3 2689   2.593   2.278   0.620  0.5625 -0.1481 -0.4786
  184DMF     O1 2690   2.670   2.187   0.629 -0.6160  0.0276 -0.1944
  184DMF     H1 2691   2.436   2.066   0.699 -0.1159 -0.7342 -0.5182
  184DMF     H2 2692   2.434   2.071   0.522 -1.0089 -2.3335  0.8160
  184DMF     H3 2693   2.293   2.117   0.612  0.0311  0.2061 -2.2876
  184DMF     H4 2694   2.262   2.325   0.684  1.5216 -3.0063 -0.6882
  184DMF     H5 2695   2.349   2.420   0.563  0.3134 -0.6356 -0.3121
  184DMF     H6 2696   2.403   2.434   0.733  0.0599  0.7114 -0.7691
  184DMF     H7 2697   2.615   2.386   0.623 -1.5334  0.2749  0.5314
  185DMF     C1 2698   0.416   1.845   3.378  0.0420 -0.0656  1.0572
  185DMF     N1 2699   0.403   1.904   3.246 -0.3528  0.8971 -0.3995
  185DMF     C2 2700   0.367   2.043   3.234 -0.1434 -0.0457 -0.2041
  185DMF     C3 2701   0.412   1.830   3.130  0.3368 -0.3294 -0.0140
  185DMF     O1 2702   0.416   1.706   3.130 -0.2893  0.0757 -0.8201
  185DMF     H1 2703   0.373   1.745   3.381 -0.5320  0.1603  0.3505
  185DMF     H2 2704   0.376   1.905   3.461 -2.8429  1.1670 -1.1481
  185DMF     H3 2705   0.525   1.830   3.386  0.0532 -0.6199 -0.1226
  185DMF     H4 2706   0.336   2.098   3.324 -0.4252 -1.2016  0.4047
  185DMF     H5 2707   0.280   2.049   3.168 -0.2753  2.1231  0.1109
  185DMF     H6 2708   0.450   2.093   3.181 -0.5336  0.1862 -0.6007
  185DMF     H7 2709   0.402   1.893   3.040 -1.7729 -1.2617 -0.4546
  186DMF     C1 2710   3.068   0.948   2.843  0.4737 -0.4457 -0.1860
  186DMF     N1 2711   3.064   0.999   2.702 -0.1835 -0.3596  0.2328
  186DMF     C2 2712   3.095   1.139   2.668 -0.0379 -0.5108  0.0354
  186DMF     C3 2713   3.038   0.904   2.604  0.0214  0.0746  0.1317
  186DMF     O1 2714   3.032   0.784   2.635 -0.0751  0.3823 -0.2155
  186DMF     H1 2715   2.963   0.921   2.864 -0.3489  1.8125 -1.1919
  186DMF     H2 2716   3.104   1.027   2.910 -0.7156 -1.5479  1.8248
  186DMF     H3 2717   3.137   0.863   2.847  1.6293  0.5472  1.3351
  186DMF     H4 2718   3.192   1.140   2.617 -1.1177 -1.1822 -2.0885
  186DMF     H5 2719   3.096   1.210   2.752 -3.4382 -1.0995  0.6227
  186DMF     H6 2720   3.032   1.182   2.590  0.9049 -1.1426 -1.0959
  186DMF     H7 2721   3.036   0.942   2.500  0.3634  0.1967  0.1702
  187DMF     C1 2722   0.272   2.298   2.588  0.6650 -0.2754 -0.4292
  187DMF     N1 2723   0.228   2.156   2.587 -0.5188  0.7875  0.0499
  187DMF     C2 2724   0.323   2.051   2.546 -0.6257 -0.1576 -0.0356
  187DMF     C3 2725   0.101   2.111   2.641  0.5019 -0.9573 -0.0060
  187DMF     O1 2726   0.007   2.188   2.673 -0.4751  0.2842  0.0200
  187DMF     H1 2727   0.190   2.343   2.531 -2.2523 -2.3947  1.9351
  187DMF     H2 2728   0.376   2.309   2.554  0.8656 -1.9429 -0.4205
  187DMF     H3 2729   0.270   2.336   2.691  1.4919 -1.3391 -0.0148
  187DMF     H4 2730   0.355   2.009   2.642 -2.1430 -0.4768  0.3422
  187DMF     H5 2731   0.418   2.093   2.512 -1.1853  0.8193 -0.4225
  187DMF     H6 2732   0.283   1.974   2.480 -1.4319  0.0553  0.1914
  187DMF     H7 2733   0.087   2.004   2.619 -0.8235 -1.2406  2.0797
  188DMF     C1 2734   0.591   0.677   3.219 -0.0996  0.2234 -0.0205
  188DMF     N1 2735   0.588   0.576   3.113 -0.1860  0.3136  0.3517
  188DMF     C2 2736   0.524   0.441   3.147 -0.1110  0.0758  0.0913
  188DMF     C3 2737   0.594   0.622   2.974  0.0786 -0.2985  0.7979
  188DMF     O1 2738   0.628   0.734   2.940  0.0068 -0.4908  0.0231
  188DMF     H1 2739   0.540   0.646   3.311 -0.1793 -2.0809 -0.8239
  188DMF     H2 2740   0.537   0.765   3.180 -0.3959 -0.4526 -1.1488
  188DMF     H3 2741   0.696   0.691   3.248  0.0611 -0.4615 -0.2655
  188DMF     H4 2742   0.588   0.362   3.106 -0.4378  0.3812 -1.0190
  188DMF     H5 2743   0.424   0.420   3.106 -0.2213  2.1273 -0.7727
  188DMF     H6 2744   0.520   0.435   3.256 -4.0670  0.0180  0.0233
  188DMF     H7 2745   0.557   0.549   2.899 -0.5359  0.7181  0.0903
  189DMF     C1 2746   3.308   0.031   3.136  0.4339  0.3996 -0.5492
  189DMF     N1 2747   3.288  -0.036   3.005  0.3693  0.4517 -0.3347
  189DMF     C2 2748   3.151  -0.029   2.944  0.2776 -0.6179  0.6514
  189DMF     C3 2749   3.389  -0.113   2.953 -0.2069 -0.1070  0.2538
  189DMF     O1 2750   3.501  -0.129   2.998 -0.1721  0.0684  0.0938
  189DMF     H1 2751   3.356   0.128   3.125 -1.0393  1.2602  0.4723
  189DMF     H2 2752   3.368  -0.033   3.202  0.0921 -0.4008 -0.9928
  189DMF     H3 2753   3.210   0.050   3.182  1.2042  4.4189 -0.4436
  189DMF     H4 2754   3.070  -0.053   3.013 -0.1207 -1.8252 -0.2274
  189DMF     H5 2755   3.139  -0.106   2.867 -1.3321  2.2612 -2.0834
  189DMF     H6 2756   3.143   0.069   2.894  1.0264 -0.2935  1.1588
  189DMF     H7 2757   3.356  -0.152   2.855 -1.9426 -0.3687  0.9215
  190DMF     C1 2758   2.732   0.018   3.145 -0.1846  0.1538 -1.1351
  190DMF     N1 2759   2.683   0.098   3.035  0.3084 -0.1792  0.2767
  190DMF     C2 2760   2.566   0.190   3.055  0.4673  0.0314  0.5542
  190DMF     C3 2761   2.768   0.127   2.928  0.2160 -0.0679 -0.4332
  190DMF     O1 2762   2.878   0.078   2.917  0.2982 -0.0597  0.0009
  190DMF     H1 2763   2.685  -0.081   3.147  1.2162 -0.5263  1.8411
  190DMF     H2 2764   2.716   0.064   3.244  1.1030  2.3184 -1.8866
  190DMF     H3 2765   2.840  -0.003   3.142  0.2652  2.4008 -1.3859
  190DMF     H4 2766   2.595   0.292   3.027 -0.0685  0.5798  1.9613
  190DMF     H5 2767   2.527   0.196   3.157  1.1816  1.0436  0.7802
  190DMF     H6 2768   2.484   0.160   2.990  0.0234 -0.9735  1.5690
  190DMF     H7 2769   2.722   0.190   2.849  2.4283  0.5778 -1.2508
  191DMF     C1 2770   1.190   1.153   2.227  0.0841 -0.0789 -0.0348
  191DMF     N1 2771   1.063   1.082   2.246  0.8794  0.6755 -0.0235
  191DMF     C2 2772   1.073   0.946   2.289  0.4011 -0.3278 -0.5164
  191DMF     C3 2773   0.943   1.154   2.258 -0.4233 -0.4936 -0.3390
  191DMF     O1 2774   0.949   1.276   2.251  0.1254 -0.1195 -0.4171
  191DMF     H1 2775   1.191   1.229   2.148 -2.0686 -0.1840 -0.1888
  191DMF     H2 2776   1.276   1.088   2.206  1.0184 -0.0699  3.4409
  191DMF     H3 2777   1.218   1.211   2.316  0.1985  1.0492 -0.7835
  191DMF     H4 2778   1.147   0.899   2.223 -0.5932 -2.9077  0.1824
  191DMF     H5 2779   0.976   0.896   2.283 -0.0126  0.3851  0.0269
  191DMF     H6 2780   1.102   0.930   2.394  2.0345 -1.8220 -1.1705
  191DMF     H7 2781   0.848   1.098   2.269 -1.3118  0.8822 -0.9323
  192DMF     C1 2782   1.298   2.594   0.204 -0.0989 -0.4220 -0.1349
  192DMF     N1 2783   1.175   2.658   0.147  0.1424  0.3553 -0.1522
  192DMF     C2 2784   1.183   2.722   0.014  0.0105  0.0400  0.2677
  192DMF     C3 2785   1.059   2.679   0.226 -0.4050  0.0552 -0.9642
  192DMF     O1 2786   1.053   2.633   0.337  0.1955  0.1683 -0.5203
  192DMF     H1 2787   1.335   2.646   0.293  0.1911 -0.2317 -0.3639
  192DMF     H2 2788   1.387   2.605   0.140 -0.7227 -0.9502 -1.0994
  192DMF     H3 2789   1.279   2.487   0.219 -1.4594 -0.4719 -2.0687
  192DMF     H4 2790   1.148   2.826   0.016  3.2945  1.2709 -1.4564
  192DMF     H5 2791   1.117   2.669  -0.056 -1.9243  0.0559  2.0359
  192DMF     H6 2792   1.288   2.712  -0.015 -0.6207 -5.4593 -0.6820
  192DMF     H7 2793   0.978   2.716   0.161  0.3265 -0.4207 -2.1482
  193DMF     C1 2794   0.450   3.184   2.257 -0.5830  0.4685 -0.1923
  193DMF     N1 2795   0.395   3.203   2.390  0.6891 -0.9194 -0.4053
  193DMF     C2 2796   0.489   3.223   2.507  0.7378  0.4022  0.3427
  193DMF     C3 2797   0.257   3.187   2.412 -0.0809 -0.5612 -0.1122
  193DMF     O1 2798   0.168   3.177   2.332  0.1264 -0.4571  0.1851
  193DMF     H1 2799   0.550   3.140   2.272 -0.9988 -0.0181  1.2586
  193DMF     H2 2800   0.467   3.278   2.203  0.2793  0.2940 -0.2418
  193DMF     H3 2801   0.384   3.117   2.201 -2.0678 -0.6590  2.8064
  193DMF     H4 2802   0.580   3.268   2.467 -0.3704  2.9694  0.5944
  193DMF     H5 2803   0.506   3.133   2.568 -0.7733 -0.3885 -0.3696
  193DMF     H6 2804   0.437   3.296   2.570  2.0759  1.6205  0.0636
  193DMF     H7 2805   0.246   3.194   2.522 -1.7139  0.8019 -0.3511
  194DMF     C1 2806   2.215   2.454   3.463 -0.3741  0.1467 -0.4865
  194DMF     N1 2807   2.173   2.523   3.582  0.0181 -0.0579  0.1230
  194DMF     C2 2808   2.099   2.451   3.682 -0.1478 -0.6038  0.4434
  194DMF     C3 2809   2.204   2.658   3.598  0.2559 -0.2834  0.6279
  194DMF     O1 2810   2.268   2.727   3.517 -0.2275  0.0960 -0.1382
  194DMF     H1 2811   2.320   2.469   3.438 -0.1101 -0.6281  0.1548
  194DMF     H2 2812   2.152   2.486   3.378 -0.4589 -1.6398 -1.1305
  194DMF     H3 2813   2.199   2.345   3.464  1.2846 -0.0978  0.6673
  194DMF     H4 2814   2.146   2.355   3.707  0.6304 -0.5686 -0.8252
  194DMF     H5 2815   1.994   2.449   3.649  0.3719  1.8752 -1.5919
  194DMF     H6 2816   2.107   2.511   3.774  0.2918  0.4420 -0.2610
  194DMF     H7 2817   2.142   2.705   3.677 -0.3326  1.2756 -0.7280
  195DMF     C1 2818   1.702   2.867   2.291 -0.3883  0.9283  0.2268
  195DMF     N1 2819   1.849   2.870   2.250 -0.2726 -0.2423 -0.0958
  195DMF     C2 2820   1.902   2.742   2.230  0.2187  0.0772  0.2772
  195DMF     C3 2821   1.920   2.990   2.210  0.0696 -0.0422 -0.1377
  195DMF     O1 2822   1.878   3.101   2.233  0.0886 -0.1971 -0.1149
  195DMF     H1 2823   1.679   2.972   2.316 -0.3318  0.9761  0.0837
  195DMF     H2 2824   1.692   2.807   2.382  0.7398  0.1514 -0.1383
  195DMF     H3 2825   1.644   2.833   2.204 -1.2119  2.4379  0.1524
  195DMF     H4 2826   1.836   2.679   2.170  1.1371 -0.4033 -0.2436
  195DMF     H5 2827   1.909   2.696   2.330  1.0982 -0.0992  0.1422
  195DMF     H6 2828   2.001   2.738   2.183 -0.4706  0.5678 -1.2425
  195DMF     H7 2829   2.021   2.966   2.171  1.0762  0.6578  1.9507
  196DMF     C1 2830   1.122   1.692   3.105  0.1892 -0.0693  0.1062
  196DMF     N1 2831   1.163   1.581   3.192  0.1019  0.1516  0.0145
  196DMF     C2 2832   1.224   1.463   3.129 -0.3394  0.3521  0.0330
  196DMF     C3 2833   1.158   1.595   3.326  0.2640  0.2872 -0.1774
  196DMF     O1 2834   1.122   1.702   3.381 -0.1271  0.1712  0.7928
  196DMF     H1 2835   1.059   1.647   3.028 -1.8316 -0.2377  1.8191
  196DMF     H2 2836   1.212   1.732   3.056  0.9554 -0.4510  1.1600
  196DMF     H3 2837   1.077   1.777   3.158  0.8673  0.7400 -0.5967
  196DMF     H4 2838   1.247   1.380   3.198 -0.0323  0.7407  0.3982
  196DMF     H5 2839   1.314   1.492   3.074  0.7931 -0.7001  1.2813
  196DMF     H6 2840   1.149   1.419   3.062 -1.3540  0.9375  0.7776
  196DMF     H7 2841   1.191   1.501   3.374  0.0682 -1.8362 -4.0293
  197DMF     C1 2842   2.664   2.385   3.161 -0.5965  0.0796 -0.0333
  197DMF     N1 2843   2.524   2.374   3.120  0.3747 -0.1699  0.0489
  197DMF     C2 2844   2.501   2.421   2.978 -0.2203 -0.5174 -0.1343
  197DMF     C3 2845   2.452   2.264   3.166 -0.3280  0.0997  0.2723
  197DMF     O1 2846   2.474   2.207   3.276  0.1166 -0.0142  0.8012
  197DMF     H1 2847   2.707   2.289   3.130  0.4517  0.6606 -0.3953
  197DMF     H2 2848   2.671   2.402   3.270  0.0852  2.5529 -0.4369
  197DMF     H3 2849   2.707   2.473   3.113  1.2294 -1.0081 -0.4108
  197DMF     H4 2850   2.394   2.421   2.953 -0.8846 -0.5596  2.6394
  197DMF     H5 2851   2.551   2.361   2.900  1.4454 -0.1314  0.6014
  197DMF     H6 2852   2.539   2.524   2.975 -2.0617  0.1798  0.1892
  197DMF     H7 2853   2.369   2.230   3.101  1.5186 -0.8380 -1.6701
  198DMF     C1 2854   2.941   1.612   2.225 -0.3878 -0.2487 -0.0271
  198DMF     N1 2855   3.069   1.636   2.299  0.7082  0.3952 -0.6798
  198DMF     C2 2856   3.168   1.737   2.255  0.0844 -0.0855 -0.0221
  198DMF     C3 2857   3.107   1.557   2.411  0.5038  0.6203 -0.0976
  198DMF     O1 2858   3.041   1.467   2.463 -0.4047  0.6996 -0.4837
  198DMF     H1 2859   2.951   1.517   2.171 -1.7066 -0.2939 -0.2062
  198DMF     H2 2860   2.919   1.693   2.154 -1.1942 -1.8710 -1.6843
  198DMF     H3 2861   2.863   1.612   2.302  0.7058 -0.1401  1.0997
  198DMF     H4 2862   3.118   1.796   2.178 -2.2086 -2.7630 -0.6717
  198DMF     H5 2863   3.264   1.691   2.226  1.4550  2.2347  0.7059
  198DMF     H6 2864   3.194   1.799   2.342 -1.9801  0.5241  0.1894
  198DMF     H7 2865   3.210   1.581   2.443  0.6579 -1.2197  0.8137
  199DMF     C1 2866   2.047   0.457   2.280  0.1137 -0.1790 -0.0477
  199DMF     N1 2867   2.066   0.499   2.416  0.3956  0.4465 -0.3202
  199DMF     C2 2868   1.958   0.461   2.515 -0.3378  0.1649 -0.4756
  199DMF     C3 2869   2.172   0.590   2.447  0.6093 -0.3626 -0.5612
  199DMF     O1 2870   2.248   0.635   2.362 -0.7571  0.0883 -0.3290
  199DMF     H1 2871   2.001   0.533   2.216  1.4407  2.0553  1.5846
  199DMF     H2 2872   1.971   0.378   2.284  0.4048 -0.4080  1.1538
  199DMF     H3 2873   2.130   0.415   2.223 -1.5041 -1.5688 -1.4531
  199DMF     H4 2874   1.890   0.542   2.545 -2.2453 -0.3616 -3.1934
  199DMF     H5 2875   2.018   0.426   2.600  1.5692  2.4811 -0.8080
  199DMF     H6 2876   1.895   0.376   2.486 -0.5057 -0.1376  0.7567
  199DMF     H7 2877   2.178   0.611   2.555 -1.4373  0.3830 -0.5623
  200DMF     C1 2878   2.320   0.454   2.997 -0.2627 -0.2041  0.0946
  200DMF     N1 2879   2.252   0.397   3.115 -0.2887 -0.4170 -0.0328
  200DMF     C2 2880   2.206   0.486   3.218 -0.1715 -0.0330 -0.2229
  200DMF     C3 2881   2.226   0.257   3.126  0.6247 -0.6542  0.3553
  200DMF     O1 2882   2.252   0.166   3.044 -0.3161 -0.3447 -0.5454
  200DMF     H1 2883   2.322   0.373   2.923  1.2618  1.2160 -1.4793
  200DMF     H2 2884   2.424   0.478   3.021  0.4567 -2.3823 -0.7072
  200DMF     H3 2885   2.279   0.544   2.950 -0.0845  0.1583  0.6343
  200DMF     H4 2886   2.276   0.568   3.240 -2.7077  2.6228 -1.7185
  200DMF     H5 2887   2.181   0.434   3.311  0.7848 -0.9575 -0.4663
  200DMF     H6 2888   2.116   0.525   3.168 -0.2593  1.2140  0.8938
  200DMF     H7 2889   2.181   0.231   3.223  0.7013  0.9896  0.8375
  201DMF     C1 2890   3.009   0.343   3.282 -0.4794 -0.9367 -0.5547
  201DMF     N1 2891   3.119   0.292   3.371 -1.4460 -0.0275  0.0269
  201DMF     C2 2892   3.256   0.343   3.365  0.1849  0.5181 -0.6071
  201DMF     C3 2893   3.091   0.199   3.471 -0.4680 -0.3504 -0.7493
  201DMF     O1 2894   2.980   0.151   3.484  0.7810  0.6352 -0.5700
  201DMF     H1 2895   2.918   0.375   3.334  1.2590  0.8932  1.4409
  201DMF     H2 2896   2.978   0.263   3.213 -0.2941 -0.4362 -1.2214
  201DMF     H3 2897   3.050   0.430   3.229  0.9071  0.4834  2.6729
  201DMF     H4 2898   3.308   0.309   3.274 -0.2519 -1.2377 -0.2348
  201DMF     H5 2899   3.310   0.324   3.459 -1.2587  2.0663  0.5673
  201DMF     H6 2900   3.257   0.452   3.359 -2.6927  0.7007  1.1996
  201DMF     H7 2901   3.180   0.175   3.533 -1.7649 -1.0408  0.8718
  202DMF     C1 2902   0.184   0.180   3.759  0.0383 -0.2796  0.5032
  202DMF     N1 2903   0.132   0.165   3.896 -0.1931  0.0185 -0.0840
  202DMF     C2 2904  -0.018   0.153   3.920 -0.5175  0.7049 -0.2240
  202DMF     C3 2905   0.218   0.127   4.004  0.1355  0.0050  0.0580
  202DMF     O1 2906   0.337   0.131   3.997 -0.5545 -0.4645 -0.2588
  202DMF     H1 2907   0.230   0.089   3.720 -0.4498 -0.3071 -0.0156
  202DMF     H2 2908   0.255   0.264   3.754 -1.1012  0.6001 -1.7440
  202DMF     H3 2909   0.101   0.212   3.695  0.9093  3.5590  1.1257
  202DMF     H4 2910  -0.045   0.061   3.975  0.4139  1.2486  1.1751
  202DMF     H5 2911  -0.074   0.139   3.827  0.2622 -0.8477 -0.4837
  202DMF     H6 2912  -0.065   0.234   3.977  0.5519  2.7688 -2.2538
  202DMF     H7 2913   0.158   0.094   4.090  5.1860 -0.5329  3.5958
  203DMF     C1 2914   2.707   0.634   2.598  0.5205  0.2682  0.2376
  203DMF     N1 2915   2.695   0.731   2.704 -0.0531 -0.0700  0.0768
  203DMF     C2 2916   2.652   0.863   2.665  1.7473 -0.3931  0.2290
  203DMF     C3 2917   2.722   0.711   2.842 -0.0155  0.6237 -0.9050
  203DMF     O1 2918   2.740   0.599   2.884  0.4650 -0.3664  0.1313
  203DMF     H1 2919   2.802   0.638   2.542  0.1309  0.4094 -0.4179
  203DMF     H2 2920   2.623   0.652   2.530  0.4624 -2.1631 -0.3716
  203DMF     H3 2921   2.693   0.537   2.646  0.7394 -0.4765 -1.1806
  203DMF     H4 2922   2.701   0.910   2.578 -0.6893  0.4632 -0.7175
  203DMF     H5 2923   2.651   0.937   2.746  3.3329 -1.9909  1.7389
  203DMF     H6 2924   2.546   0.861   2.639  1.5800  1.5165  0.6716
  203DMF     H7 2925   2.706   0.801   2.905 -0.2577  3.0032 -4.2442
  204DMF     C1 2926   0.852   0.083   3.453 -0.2437 -0.1625  0.3728
  204DMF     N1 2927   0.781  -0.031   3.402 -0.1588  0.7636 -0.1283
  204DMF     C2 2928   0.737  -0.029   3.268  0.0746 -0.9346  0.2472
  204DMF     C3 2929   0.762  -0.147   3.481 -0.2638 -0.0757 -0.4474
  204DMF     O1 2930   0.809  -0.162   3.594  0.5075  0.1385  0.2470
  204DMF     H1 2931   0.783   0.166   3.472 -1.1305 -0.8589  0.2477
  204DMF     H2 2932   0.938   0.103   3.388 -0.2669 -1.4119 -0.0570
  204DMF     H3 2933   0.894   0.060   3.552 -1.4826  1.5028  1.2981
  204DMF     H4 2934   0.640  -0.079   3.253  1.8386 -3.5266 -3.6822
  204DMF     H5 2935   0.805  -0.074   3.194  0.7220  2.8977 -1.5825
  204DMF     H6 2936   0.733   0.072   3.226 -0.4733 -0.5273  1.2940
  204DMF     H7 2937   0.692  -0.216   3.431  0.2599 -0.0980 -1.1611
  205DMF     C1 2938   1.310   1.413   2.736  0.1098  0.5176  0.2908
  205DMF     N1 2939   1.354   1.299   2.649  0.1886 -0.1134 -0.0255
  205DMF     C2 2940   1.259   1.195   2.603 -0.0982  0.5467  0.0602
  205DMF     C3 2941   1.473   1.306   2.575  0.4025 -0.6471  0.2528
  205DMF     O1 2942   1.551   1.398   2.598  0.1719 -0.0483  0.2631
  205DMF     H1 2943   1.286   1.375   2.836  0.0021 -0.5695 -0.1464
  205DMF     H2 2944   1.238   1.476   2.682 -0.0581 -0.7882 -1.0542
  205DMF     H3 2945   1.398   1.473   2.761 -1.2435  1.1275  3.9765
  205DMF     H4 2946   1.285   1.098   2.648 -0.9736 -0.1739 -0.9461
  205DMF     H5 2947   1.286   1.190   2.497  0.8972  2.5069  0.2032
  205DMF     H6 2948   1.154   1.227   2.610 -0.2499 -0.0352  0.5553
  205DMF     H7 2949   1.487   1.229   2.498  1.9787 -0.8259  0.6929
  206DMF     C1 2950   1.882   2.713   3.476 -0.3876  0.0740 -0.0398
  206DMF     N1 2951   1.791   2.826   3.450  0.2186 -0.5082  0.4588
  206DMF     C2 2952   1.739   2.897   3.562  0.1188  0.3043 -0.9454
  206DMF     C3 2953   1.738   2.860   3.321 -0.0561 -0.1169  0.2531
  206DMF     O1 2954   1.789   2.807   3.221  0.1587  0.1816 -0.2081
  206DMF     H1 2955   1.945   2.735   3.563 -1.4049  1.7015  0.3110
  206DMF     H2 2956   1.946   2.694   3.389  1.2042 -0.4837  1.2197
  206DMF     H3 2957   1.817   2.630   3.507  0.3844 -0.6918 -0.4151
  206DMF     H4 2958   1.714   2.825   3.641  1.4624 -0.9089 -1.5969
  206DMF     H5 2959   1.641   2.941   3.542 -0.6396 -1.0586 -0.2876
  206DMF     H6 2960   1.802   2.977   3.603  2.0049 -1.8253  0.4473
  206DMF     H7 2961   1.653   2.931   3.321  1.6627  1.9832  1.1746
  207DMF     C1 2962   0.508   0.532   2.234  0.2308  0.1915 -0.2788
  207DMF     N1 2963   0.613   0.638   2.243 -0.3331 -0.2998  0.1336
  207DMF     C2 2964   0.572   0.775   2.279 -0.2211  0.4235 -0.0466
  207DMF     C3 2965   0.746   0.609   2.236 -0.4685 -0.1579  0.1089
  207DMF     O1 2966   0.791   0.492   2.227 -0.9048 -0.0739  0.3576
  207DMF     H1 2967   0.446   0.516   2.323  0.2207 -0.5553 -0.4142
  207DMF     H2 2968   0.550   0.432   2.217 -1.1387 -0.4722  0.1068
  207DMF     H3 2969   0.446   0.553   2.145 -0.3402  1.3478  0.3856
  207DMF     H4 2970   0.577   0.800   2.386 -2.5819  0.3947  0.1071
  207DMF     H5 2971   0.463   0.776   2.267 -0.0555  3.2702 -1.8661
  207DMF     H6 2972   0.624   0.846   2.215 -1.5008  1.2433 -0.2005
  207DMF     H7 2973   0.804   0.699   2.262 -0.9347  0.4078 -0.7996
  208DMF     C1 2974   0.344   0.330   0.481 -0.3346 -0.2374  0.0229
  208DMF     N1 2975   0.235   0.325   0.577 -0.0315  0.3793 -0.0992
  208DMF     C2 2976   0.237   0.435   0.678 -0.5250 -1.0759 -0.5257
  208DMF     C3 2977   0.158   0.211   0.599 -0.0381  0.6893  0.3119
  208DMF     O1 2978   0.156   0.115   0.526  0.0695 -0.0148 -0.2465
  208DMF     H1 2979   0.315   0.276   0.391  0.5405 -0.3524 -0.1876
  208DMF     H2 2980   0.428   0.273   0.522 -1.2187  0.0422  2.3621
  208DMF     H3 2981   0.369   0.436   0.464 -3.3130  0.7332  1.3005
  208DMF     H4 2982   0.339   0.447   0.715 -0.7093  2.3582 -1.0318
  208DMF     H5 2983   0.163   0.415   0.757 -1.3990  0.9856 -0.7908
  208DMF     H6 2984   0.207   0.527   0.627 -1.0690 -1.2210 -0.4789
  208DMF     H7 2985   0.094   0.222   0.689  1.1107 -0.6452  1.3111
  209DMF     C1 2986   2.064   2.898   2.525  0.3035  0.2612  0.0443
  209DMF     N1 2987   1.995   2.991   2.628 -0.8786  0.4788 -0.0756
  209DMF     C2 2988   1.908   3.099   2.582  0.6197 -0.1360  0.2491
  209DMF     C3 2989   1.969   2.944   2.762 -0.5312 -1.3880  0.6602
  209DMF     O1 2990   2.029   2.853   2.812  0.6433  0.0569  0.1297
  209DMF     H1 2991   2.005   2.807   2.508  1.4334 -0.4825  0.0671
  209DMF     H2 2992   2.163   2.875   2.566  0.5748  1.2325 -0.0641
  209DMF     H3 2993   2.072   2.958   2.434  1.2090 -0.6830 -0.5070
  209DMF     H4 2994   1.827   3.050   2.526  1.0565 -0.0742 -0.4501
  209DMF     H5 2995   1.966   3.168   2.520 -0.8904  1.1639  0.2773
  209DMF     H6 2996   1.868   3.160   2.663 -3.2430 -2.3805  0.1607
  209DMF     H7 2997   1.885   3.000   2.806  0.8070  0.2898  1.1571
  210DMF     C1 2998   0.098   1.274   2.788 -1.0186 -0.8479 -0.5032
  210DMF     N1 2999   0.017   1.384   2.736 -0.3913  0.2460  0.3981
  210DMF     C2 3000   0.050   1.423   2.599  0.0836 -0.4263 -0.0510
  210DMF     C3 3001  -0.078   1.451   2.809  0.1210 -0.5224 -0.1607
  210DMF     O1 3002  -0.108   1.421   2.925  0.5879  1.2004  0.4171
  210DMF     H1 3003   0.161   1.310   2.870 -0.8555 -4.2804  0.9409
  210DMF     H2 3004   0.161   1.235   2.707  0.6939 -0.3121  0.5343
  210DMF     H3 3005   0.031   1.198   2.829 -2.2529  1.0034  0.9723
  210DMF     H4 3006  -0.040   1.459   2.547 -0.8145 -1.0141  1.0675
  210DMF     H5 3007   0.088   1.339   2.540  0.7677 -1.3474  1.6790
  210DMF     H6 3008   0.120   1.507   2.603  0.0639 -0.3390 -1.3289
  210DMF     H7 3009  -0.140   1.518   2.746 -1.5464 -2.7702 -0.9845
  211DMF     C1 3010   2.902   1.815   2.801 -0.1661 -0.4256  0.1724
  211DMF     N1 3011   2.956   1.935   2.736  0.2871 -0.3632 -0.1197
  211DMF     C2 3012   2.874   2.057   2.754  0.0409 -0.2614  0.1383
  211DMF     C3 3013   3.061   1.930   2.640 -0.0743  0.0124  0.0003
  211DMF     O1 3014   3.109   1.826   2.609 -0.3610  0.3699  0.0466
  211DMF     H1 3015   2.977   1.767   2.865 -0.8303 -1.4597  0.1766
  211DMF     H2 3016   2.859   1.741   2.732 -1.0098  1.6315 -1.5696
  211DMF     H3 3017   2.821   1.848   2.868 -0.7130  3.5636 -2.2662
  211DMF     H4 3018   2.847   2.101   2.657 -4.4130 -1.2150  0.8355
  211DMF     H5 3019   2.931   2.125   2.819 -1.3582  0.2994  0.7992
  211DMF     H6 3020   2.783   2.030   2.810  0.3991 -1.3546  0.2067
  211DMF     H7 3021   3.089   2.029   2.600 -0.5399 -0.2678 -1.0420
  212DMF     C1 3022   1.272   2.333   2.218 -0.2243  0.6053  0.4468
  212DMF     N1 3023   1.143   2.301   2.280  0.1866  1.4409  0.1210
  212DMF     C2 3024   1.055   2.197   2.212 -0.0756  0.2084 -0.0354
  212DMF     C3 3025   1.094   2.371   2.388  0.2242 -0.2284  0.4301
  212DMF     O1 3026   1.164   2.456   2.439  0.0883 -0.8745 -0.3197
  212DMF     H1 3027   1.297   2.258   2.142  2.4401  0.8532  1.0270
  212DMF     H2 3028   1.354   2.326   2.290 -0.9310 -2.7372  0.9978
  212DMF     H3 3029   1.260   2.423   2.156 -2.9109 -2.5074 -3.8820
  212DMF     H4 3030   0.988   2.152   2.286  0.7601 -0.7217  0.1672
  212DMF     H5 3031   1.111   2.117   2.163 -1.4760 -0.5683 -0.3604
  212DMF     H6 3032   0.982   2.248   2.149  0.4033  0.2160 -0.5858
  212DMF     H7 3033   0.991   2.351   2.423 -0.4200 -0.6955 -1.6971
  213DMF     C1 3034   1.835   0.537   3.024 -0.0754  0.4961  0.0212
  213DMF     N1 3035   1.752   0.646   3.087 -0.6326 -0.0907  0.7258
  213DMF     C2 3036   1.601   0.614   3.079  0.3552  0.1384 -0.0668
  213DMF     C3 3037   1.793   0.758   3.154  0.1894 -0.3140 -0.6964
  213DMF     O1 3038   1.911   0.789   3.163  0.3986  0.1751  0.1185
  213DMF     H1 3039   1.846   0.457   3.097  3.3269  0.7244 -0.1576
  213DMF     H2 3040   1.928   0.590   3.001 -0.5015  1.2645  0.0613
  213DMF     H3 3041   1.799   0.492   2.930 -1.6479  1.0420  0.3484
  213DMF     H4 3042   1.549   0.629   2.983 -2.3489 -0.9552  1.1914
  213DMF     H5 3043   1.540   0.693   3.125 -0.0645 -0.5413  0.5495
  213DMF     H6 3044   1.587   0.520   3.133  1.2666 -0.7839 -1.3977
  213DMF     H7 3045   1.708   0.818   3.190  0.7898 -1.3091  2.5211
  214DMF     C1 3046   1.321   1.293   0.384  0.2002 -0.3984  0.5086
  214DMF     N1 3047   1.319   1.181   0.465 -0.3503  0.3947 -0.3198
  214DMF     C2 3048   1.186   1.107   0.478 -0.0741 -1.0078  0.0446
  214DMF     C3 3049   1.436   1.140   0.531 -0.4911 -0.6692  0.9616
  214DMF     O1 3050   1.548   1.188   0.515  0.0417 -0.2511 -0.9591
  214DMF     H1 3051   1.373   1.258   0.294 -0.4310 -1.6806  0.6313
  214DMF     H2 3052   1.370   1.377   0.435  1.5435 -0.5421 -0.5098
  214DMF     H3 3053   1.222   1.328   0.353  0.5010 -1.5597 -1.8617
  214DMF     H4 3054   1.141   1.124   0.576 -1.4198  0.8453 -0.8598
  214DMF     H5 3055   1.198   1.000   0.457  1.5758 -0.7218 -0.5480
  214DMF     H6 3056   1.105   1.149   0.416 -0.7491  0.2249  1.7260
  214DMF     H7 3057   1.428   1.051   0.596 -2.0584 -0.7928  0.6316
  215DMF     C1 3058   2.826   0.904   3.355  0.7444  0.8183 -1.1060
  215DMF     N1 3059   2.904   0.802   3.289 -0.7338 -0.0112 -0.1812
  215DMF     C2 3060   3.041   0.836   3.252 -0.0750  0.0887 -0.1476
  215DMF     C3 3061   2.840   0.686   3.228 -0.6351 -0.2165  0.1438
  215DMF     O1 3062   2.723   0.661   3.243 -0.0706 -0.0668 -0.0474
  215DMF     H1 3063   2.731   0.923   3.303  0.5854  2.7364 -0.1591
  215DMF     H2 3064   2.871   1.005   3.349  0.7843  0.9277  0.7337
  215DMF     H3 3065   2.806   0.862   3.454 -0.3274 -1.9279 -2.4504
  215DMF     H4 3066   3.083   0.927   3.295 -0.2602  0.3128 -0.4401
  215DMF     H5 3067   3.051   0.842   3.143  1.6347  0.3768  0.0148
  215DMF     H6 3068   3.104   0.755   3.290 -0.1891  0.7207  1.4422
  215DMF     H7 3069   2.910   0.628   3.165 -0.6111 -1.3092  1.1597
  216DMF     C1 3070   2.238   0.916   2.629 -0.5079  0.1790 -0.8580
  216DMF     N1 3071   2.137   0.928   2.739 -0.1972 -0.4626  0.2548
  216DMF     C2 3072   2.084   1.068   2.768 -0.1569  0.3907 -0.2608
  216DMF     C3 3073   2.098   0.818   2.821 -0.1407  0.6738  0.1009
  216DMF     O1 3074   2.150   0.706   2.807  0.0568 -0.7511 -0.9003
  216DMF     H1 3075   2.326   0.869   2.676  1.0038  2.5026 -1.2645
  216DMF     H2 3076   2.281   1.014   2.603 -0.8859  0.4668 -0.4074
  216DMF     H3 3077   2.195   0.854   2.549 -0.6628  0.7774 -1.2425
  216DMF     H4 3078   2.169   1.126   2.806 -0.7127  0.0532  1.5637
  216DMF     H5 3079   2.005   1.058   2.844  0.3944  3.0586  0.7041
  216DMF     H6 3080   2.050   1.102   2.670 -0.4750  3.4523  0.8519
  216DMF     H7 3081   2.022   0.844   2.897 -0.3023  0.6048 -0.0372
  217DMF     C1 3082   0.367   1.674   2.671 -0.4253  0.0409 -0.0539
  217DMF     N1 3083   0.482   1.667   2.760  0.0081  0.2937 -0.2851
  217DMF     C2 3084   0.501   1.548   2.851 -0.6371  0.2590 -0.7840
  217DMF     C3 3085   0.583   1.760   2.757 -0.3926  0.4161  0.5622
  217DMF     O1 3086   0.568   1.860   2.689  0.5130 -0.5401  0.2781
  217DMF     H1 3087   0.397   1.673   2.565  0.0094 -2.2507  0.0687
  217DMF     H2 3088   0.313   1.767   2.691  0.2507  0.4050  0.1029
  217DMF     H3 3089   0.310   1.581   2.665  2.0418 -1.6654  1.9436
  217DMF     H4 3090   0.530   1.578   2.952 -1.6821 -1.6147  0.0752
  217DMF     H5 3091   0.571   1.474   2.809  0.1520  1.1448 -1.0787
  217DMF     H6 3092   0.403   1.500   2.856 -1.2175  1.5191  0.2398
  217DMF     H7 3093   0.677   1.740   2.812 -0.6184  2.0359  1.5697
  218DMF     C1 3094   0.163   1.238   2.222  0.6700 -0.6500 -0.4531
  218DMF     N1 3095   0.035   1.168   2.259  0.4339 -1.0286  0.1290
  218DMF     C2 3096   0.039   1.025   2.266  0.1058 -0.0080  0.3003
  218DMF     C3 3097  -0.086   1.245   2.266  0.0238 -0.2812  0.0819
  218DMF     O1 3098  -0.084   1.364   2.278  0.1363 -0.3057 -0.1690
  218DMF     H1 3099   0.148   1.335   2.174  0.2543 -0.3713  0.2364
  218DMF     H2 3100   0.213   1.172   2.150 -2.4507 -2.8090 -0.7599
  218DMF     H3 3101   0.224   1.242   2.314 -1.5853 -0.2319  1.0639
  218DMF     H4 3102   0.115   0.984   2.335  0.7025  0.5592 -0.0180
  218DMF     H5 3103   0.040   0.990   2.162  1.5185  1.7312 -0.3028
  218DMF     H6 3104  -0.056   0.998   2.314 -1.1140  0.7477 -1.6444
  218DMF     H7 3105  -0.177   1.183   2.280 -1.8992  2.2460 -0.7284
  219DMF     C1 3106   2.991   3.117   0.661 -0.5303  0.3010 -0.6043
  219DMF     N1 3107   2.879   3.087   0.748 -0.1382  0.2203  0.2002
  219DMF     C2 3108   2.853   3.188   0.857  1.0233  0.1755 -0.2330
  219DMF     C3 3109   2.795   2.981   0.719 -0.1515 -0.1417 -0.5944
  219DMF     O1 3110   2.823   2.893   0.635  0.4353 -0.0351 -0.7808
  219DMF     H1 3111   3.070   3.181   0.701 -0.2263 -0.0475 -0.6440
  219DMF     H2 3112   2.963   3.185   0.579  1.7064  0.5658 -1.1996
  219DMF     H3 3113   3.038   3.025   0.625 -0.6915  0.8090 -2.1553
  219DMF     H4 3114   2.850   3.291   0.821 -0.0365 -0.0530 -0.8368
  219DMF     H5 3115   2.929   3.164   0.932  0.4656 -1.8588 -0.2791
  219DMF     H6 3116   2.752   3.158   0.887  1.8148 -1.5500  0.7856
  219DMF     H7 3117   2.712   2.984   0.792  1.1963  2.6408  0.9289
  220DMF     C1 3118   2.258   1.746   2.239 -0.7582  0.6163 -0.4431
  220DMF     N1 3119   2.175   1.628   2.259 -0.2140 -0.9131 -0.3052
  220DMF     C2 3120   2.027   1.654   2.271 -0.5916 -0.1800 -0.9573
  220DMF     C3 3121   2.229   1.498   2.244 -0.6861  0.3918  0.4545
  220DMF     O1 3122   2.353   1.484   2.231  0.5740  0.0548 -0.6621
  220DMF     H1 3123   2.351   1.724   2.186  0.7956  1.1464  2.0093
  220DMF     H2 3124   2.291   1.796   2.330 -1.2436 -2.3294  1.3990
  220DMF     H3 3125   2.195   1.814   2.179 -1.7570 -0.4951 -0.6770
  220DMF     H4 3126   1.998   1.759   2.258 -0.0929  0.1600  0.6082
  220DMF     H5 3127   2.005   1.625   2.374 -1.1910  1.2363 -0.6664
  220DMF     H6 3128   1.961   1.591   2.210 -2.9690  1.0998  0.2360
  220DMF     H7 3129   2.144   1.428   2.251 -0.0621 -0.4636 -0.4420
  221DMF     C1 3130   0.371   3.123   3.503 -0.6018  0.2533 -0.7819
  221DMF     N1 3131   0.291   3.165   3.388  0.4268 -0.1114 -0.2259
  221DMF     C2 3132   0.145   3.202   3.424 -0.0509  0.2264 -0.4462
  221DMF     C3 3133   0.352   3.220   3.268 -0.1392  0.0015 -0.0492
  221DMF     O1 3134   0.470   3.213   3.244  0.3904 -0.0953  0.6896
  221DMF     H1 3135   0.322   3.049   3.568  1.2370 -1.6338 -1.4910
  221DMF     H2 3136   0.402   3.215   3.553 -1.7202 -0.2571  0.8865
  221DMF     H3 3137   0.466   3.088   3.462 -0.0394  1.2178 -0.3167
  221DMF     H4 3138   0.096   3.237   3.332 -0.8073 -0.1818 -0.2059
  221DMF     H5 3139   0.145   3.282   3.498  1.4462  0.5264 -0.7597
  221DMF     H6 3140   0.097   3.118   3.477 -0.3809  0.3058 -0.6186
  221DMF     H7 3141   0.279   3.267   3.199 -1.5172 -0.5335  1.0221
  222DMF     C1 3142   2.648   1.724   3.141 -0.6433 -0.4734 -0.3610
  222DMF     N1 3143   2.622   1.833   3.050  0.2720  0.1678 -0.0315
  222DMF     C2 3144   2.609   1.970   3.105  0.4595 -0.0457 -0.2139
  222DMF     C3 3145   2.578   1.804   2.921 -0.0803 -0.4504 -0.3247
  222DMF     O1 3146   2.571   1.689   2.878  0.0122 -0.3235  0.4454
  222DMF     H1 3147   2.732   1.758   3.203  0.3738 -2.9008 -0.3688
  222DMF     H2 3148   2.687   1.638   3.086  0.7028 -0.2386  0.1990
  222DMF     H3 3149   2.567   1.693   3.207 -0.8589 -1.5404 -1.1198
  222DMF     H4 3150   2.504   2.000   3.114  0.1391 -1.0402 -0.4606
  222DMF     H5 3151   2.653   2.039   3.032  0.8344 -2.4140 -2.3025
  222DMF     H6 3152   2.662   1.972   3.200 -0.4532 -0.7223  0.3144
  222DMF     H7 3153   2.529   1.890   2.872 -0.9616 -0.3886  0.6272
  223DMF     C1 3154   0.187   0.558   2.884 -0.1925  0.2154 -0.4455
  223DMF     N1 3155   0.093   0.444   2.922  0.3978 -0.5217  0.2349
  223DMF     C2 3156   0.044   0.448   3.059  0.2323 -0.1243 -0.6932
  223DMF     C3 3157   0.035   0.361   2.826 -0.9490 -0.1974  0.0327
  223DMF     O1 3158   0.060   0.377   2.706  0.4280 -0.3121  0.0273
  223DMF     H1 3159   0.279   0.527   2.936 -0.7604  2.5448  2.1177
  223DMF     H2 3160   0.141   0.652   2.919 -1.6296 -0.3955 -0.6420
  223DMF     H3 3161   0.208   0.577   2.779  1.2948 -0.2207 -0.2321
  223DMF     H4 3162   0.129   0.427   3.126  1.3744  4.8712 -0.4049
  223DMF     H5 3163  -0.039   0.377   3.069  1.0906 -0.8319  1.8261
  223DMF     H6 3164   0.008   0.547   3.087  1.1532  0.1366 -0.4234
  223DMF     H7 3165  -0.028   0.283   2.873 -1.7683 -0.0113 -0.7187
  224DMF     C1 3166   1.945   2.049   0.626 -0.2760 -0.4063  0.1292
  224DMF     N1 3167   1.804   2.022   0.594  0.7321  0.5340  0.2033
  224DMF     C2 3168   1.765   1.882   0.614 -0.2624  0.3646  0.1759
  224DMF     C3 3169   1.725   2.113   0.525 -0.5384 -0.2971  0.7720
  224DMF     O1 3170   1.762   2.228   0.496 -0.3311 -0.3550  0.0741
  224DMF     H1 3171   1.953   2.137   0.692  0.2826  0.1784 -0.7135
  224DMF     H2 3172   1.995   2.080   0.534 -0.7262 -1.6091 -0.5323
  224DMF     H3 3173   1.997   1.960   0.663  1.5475  0.3308 -0.5772
  224DMF     H4 3174   1.818   1.857   0.706  1.8109  0.3379 -0.9848
  224DMF     H5 3175   1.816   1.825   0.536  0.4599  1.1692  0.0497
  224DMF     H6 3176   1.658   1.867   0.629 -0.8466  2.0279 -1.9643
  224DMF     H7 3177   1.627   2.071   0.495 -0.4180 -1.4379  1.9502
  225DMF     C1 3178   0.286   0.330   3.433  0.4034  0.3718  0.4118
  225DMF     N1 3179   0.297   0.192   3.373 -0.4040 -0.1643 -0.0261
  225DMF     C2 3180   0.201   0.151   3.263 -0.3407  0.7872 -0.3253
  225DMF     C3 3181   0.396   0.106   3.426 -0.4311  0.8064 -0.0084
  225DMF     O1 3182   0.464   0.131   3.521  1.0539 -0.2744  0.1000
  225DMF     H1 3183   0.383   0.376   3.454  0.1552  0.6752  0.8965
  225DMF     H2 3184   0.225   0.315   3.523 -0.7390  1.9375 -0.0725
  225DMF     H3 3185   0.235   0.389   3.356 -0.7173 -4.5833 -2.8994
  225DMF     H4 3186   0.154   0.240   3.219 -1.7214  0.4197  0.3517
  225DMF     H5 3187   0.126   0.081   3.302 -0.6490  0.6442 -1.1693
  225DMF     H6 3188   0.261   0.094   3.192 -1.3408 -0.2715 -0.3478
  225DMF     H7 3189   0.398   0.002   3.389 -1.6388  0.6470  0.3490
  226DMF     C1 3190   1.668   1.304   2.866  0.3954 -0.0770  0.6906
  226DMF     N1 3191   1.657   1.232   2.994 -0.2851 -0.2142 -0.0247
  226DMF     C2 3192   1.588   1.302   3.108 -0.2840 -0.1976  0.1493
  226DMF     C3 3193   1.713   1.104   3.012  0.2204  0.0812  0.2846
  226DMF     O1 3194   1.775   1.051   2.915 -0.3104 -0.0508  0.4566
  226DMF     H1 3195   1.764   1.280   2.818  0.3016  2.1869 -0.7200
  226DMF     H2 3196   1.640   1.410   2.864  1.2201  0.1287 -0.5719
  226DMF     H3 3197   1.587   1.259   2.807 -1.4141  1.3298  2.0420
  226DMF     H4 3198   1.560   1.403   3.077 -0.0817 -0.1440  0.1449
  226DMF     H5 3199   1.657   1.313   3.193  2.0903 -0.3424 -1.7383
  226DMF     H6 3200   1.502   1.238   3.132  0.9667 -1.1638  2.2813
  226DMF     H7 3201   1.700   1.067   3.116  1.5680  1.2354  0.8879
  227DMF     C1 3202   1.497   2.305   3.156  0.6236  0.1252  0.2992
  227DMF     N1 3203   1.617   2.393   3.172  0.1618 -0.1902 -0.3360
  227DMF     C2 3204   1.700   2.354   3.290  0.0890  0.0277  0.4382
  227DMF     C3 3205   1.641   2.513   3.095  0.1642 -0.0959  0.6179
  227DMF     O1 3206   1.568   2.549   3.004 -0.1608  0.0196  0.1490
  227DMF     H1 3207   1.470   2.302   3.050 -0.8339 -0.8147  0.6901
  227DMF     H2 3208   1.406   2.334   3.210 -0.1333 -0.5211 -0.6145
  227DMF     H3 3209   1.523   2.200   3.171  2.9718  0.9328  2.2180
  227DMF     H4 3210   1.804   2.389   3.287  0.8995 -2.3357 -0.4421
  227DMF     H5 3211   1.706   2.245   3.302  1.0056 -0.2451 -2.1245
  227DMF     H6 3212   1.657   2.394   3.382 -1.2003 -1.3571  0.4512
  227DMF     H7 3213   1.742   2.555   3.113 -0.0018 -0.1182  1.6219
  228DMF     C1 3214   3.181   2.384   2.837  0.3031  0.2221  0.3114
  228DMF     N1 3215   3.104   2.472   2.923  0.0207  1.0777  0.8294
  228DMF     C2 3216   2.963   2.475   2.890  0.5305 -0.3777  0.3832
  228DMF     C3 3217   3.161   2.536   3.034 -0.7640 -0.3165  0.1106
  228DMF     O1 3218   3.282   2.528   3.066 -0.2893  0.3045 -0.7396
  228DMF     H1 3219   3.286   2.371   2.867  1.0086 -0.0691 -2.1731
  228DMF     H2 3220   3.193   2.416   2.733  2.0753  0.8348  0.6718
  228DMF     H3 3221   3.129   2.288   2.830  0.7284  0.0168 -0.0453
  228DMF     H4 3222   2.947   2.474   2.782  0.8445 -0.0436  0.3333
  228DMF     H5 3223   2.916   2.563   2.937  0.1742 -0.3575 -0.0076
  228DMF     H6 3224   2.914   2.386   2.931 -0.5451 -0.3057 -0.7216
  228DMF     H7 3225   3.091   2.607   3.082 -0.1044 -0.9080  2.0030
  229DMF     C1 3226   2.288   3.209   3.167 -0.0761  0.4468 -0.0828
  229DMF     N1 3227   2.256   3.073   3.223  0.0319  0.1420 -0.1405
  229DMF     C2 3228   2.152   3.005   3.145  0.2297  0.5263 -0.0545
  229DMF     C3 3229   2.302   3.031   3.349 -0.1323  0.9299 -0.4500
  229DMF     O1 3230   2.372   3.095   3.422  0.5481 -0.2958  0.2796
  229DMF     H1 3231   2.302   3.203   3.059  1.5738 -0.0406  0.1425
  229DMF     H2 3232   2.379   3.242   3.219  0.7893 -1.8434 -0.0556
  229DMF     H3 3233   2.214   3.282   3.201  0.4290  0.3635  1.2268
  229DMF     H4 3234   2.056   3.005   3.197  1.1348  0.8367  1.6539
  229DMF     H5 3235   2.182   2.900   3.134  0.1198  0.6942 -2.2828
  229DMF     H6 3236   2.139   3.031   3.039 -1.2882  0.8844  0.2068
  229DMF     H7 3237   2.272   2.926   3.366  2.7860  0.1625  0.2942
  230DMF     C1 3238   1.699   2.550   2.474  0.2998 -0.3712  0.2294
  230DMF     N1 3239   1.575   2.563   2.390 -0.5420  0.1566 -0.0862
  230DMF     C2 3240   1.446   2.606   2.459 -0.7902  0.2733 -0.1541
  230DMF     C3 3241   1.570   2.550   2.252 -0.0047 -0.3095 -0.2517
  230DMF     O1 3242   1.672   2.521   2.196  0.2274 -0.3979  0.0392
  230DMF     H1 3243   1.792   2.553   2.415 -0.7797 -2.9549 -1.6830
  230DMF     H2 3244   1.683   2.464   2.540  1.3549 -0.4688  0.3728
  230DMF     H3 3245   1.693   2.642   2.534  0.4445 -0.0064 -0.3134
  230DMF     H4 3246   1.400   2.512   2.493  0.6426  0.2645  1.8033
  230DMF     H5 3247   1.385   2.664   2.389  0.0879  1.1901 -0.1641
  230DMF     H6 3248   1.466   2.681   2.536 -2.0126  2.4956 -1.9193
  230DMF     H7 3249   1.469   2.565   2.210  1.0068  1.4101 -2.1342
  231DMF     C1 3250   2.512   2.282   2.254  0.3388 -0.2230  0.3048
  231DMF     N1 3251   2.561   2.148   2.240  0.2955  0.1856  0.2607
  231DMF     C2 3252   2.471   2.042   2.240 -0.1696 -0.0605  0.0977
  231DMF     C3 3253   2.698   2.121   2.233  0.7136 -0.0119  0.5467
  231DMF     O1 3254   2.780   2.209   2.223 -0.6903  0.3995 -0.2548
  231DMF     H1 3255   2.562   2.338   2.174  0.9220 -0.3788  0.5530
  231DMF     H2 3256   2.538   2.319   2.354 -1.7991  0.7275  0.5485
  231DMF     H3 3257   2.403   2.274   2.256  0.2400  0.6679 -1.1195
  231DMF     H4 3258   2.519   1.951   2.277 -0.8631 -0.2939  0.4370
  231DMF     H5 3259   2.442   2.028   2.136 -1.7220  2.5052  0.1313
  231DMF     H6 3260   2.380   2.061   2.299 -1.8258  0.7989 -2.6701
  231DMF     H7 3261   2.721   2.014   2.222 -2.2482 -0.5841 -0.5474
  232DMF     C1 3262   3.100   0.332   2.938  0.0502  0.1651 -0.4385
  232DMF     N1 3263   3.083   0.455   2.865 -1.1071 -0.4244  0.4416
  232DMF     C2 3264   3.013   0.439   2.730  0.1104  0.2136 -0.2853
  232DMF     C3 3265   3.092   0.582   2.925  0.2436  0.2032  0.3636
  232DMF     O1 3266   3.109   0.597   3.043  0.0245 -0.5876  0.1578
  232DMF     H1 3267   3.005   0.297   2.979  0.1820  1.0027  0.6223
  232DMF     H2 3268   3.170   0.341   3.022 -0.3139  0.6314 -0.1843
  232DMF     H3 3269   3.129   0.250   2.871 -1.1369 -2.1286  1.7986
  232DMF     H4 3270   3.087   0.382   2.673  0.9232  1.5018 -0.5244
  232DMF     H5 3271   2.998   0.536   2.682  1.8589  0.2759 -0.7470
  232DMF     H6 3272   2.917   0.384   2.732  1.1807 -1.7027  0.8345
  232DMF     H7 3273   3.062   0.662   2.855 -3.1198 -0.9539  0.3884
  233DMF     C1 3274   0.619   3.340   2.835  0.6892  0.0669  0.2885
  233DMF     N1 3275   0.489   3.320   2.898 -0.0221  0.0570 -0.5709
  233DMF     C2 3276   0.441   3.186   2.907 -0.1289 -0.2385 -0.4659
  233DMF     C3 3277   0.434   3.420   2.988  0.3545  0.3823  0.0962
  233DMF     O1 3278   0.499   3.520   3.014  0.0564  0.1151 -0.5431
  233DMF     H1 3279   0.609   3.420   2.760 -0.5108  0.3099  0.6994
  233DMF     H2 3280   0.658   3.246   2.794  1.3452 -0.4141  2.0085
  233DMF     H3 3281   0.695   3.365   2.910  0.9361  0.6000 -0.1320
  233DMF     H4 3282   0.512   3.130   2.970  1.7017  2.2883 -0.2230
  233DMF     H5 3283   0.427   3.129   2.815  0.9110 -1.4767  0.1171
  233DMF     H6 3284   0.347   3.196   2.962  1.0571 -1.9464  1.9701
  233DMF     H7 3285   0.338   3.387   3.031  0.7662  0.2617  0.9234
  234DMF     C1 3286   0.840   3.032   3.238 -0.3737  0.4070  0.3776
  234DMF     N1 3287   0.906   3.024   3.102  0.0379 -0.3950 -0.8541
  234DMF     C2 3288   0.861   3.123   3.002  0.1338 -0.3474  0.1765
  234DMF     C3 3289   1.001   2.918   3.082  0.3855  0.9825  0.0579
  234DMF     O1 3290   1.029   2.845   3.170 -0.0424  0.8057 -0.1972
  234DMF     H1 3291   0.901   3.094   3.305  1.4512 -1.7594  0.7786
  234DMF     H2 3292   0.825   2.930   3.276  0.1385  0.0183 -0.4390
  234DMF     H3 3293   0.745   3.085   3.238 -1.3524 -1.2447 -3.3419
  234DMF     H4 3294   0.795   3.197   3.049  0.0414 -0.6943  0.6001
  234DMF     H5 3295   0.825   3.056   2.923  1.0434 -0.6840  0.0400
  234DMF     H6 3296   0.953   3.168   2.964 -0.8033 -1.0223 -3.0698
  234DMF     H7 3297   1.051   2.910   2.984 -1.9990 -0.5504 -1.0692
  235DMF     C1 3298   1.737   3.071   3.044  0.0788  0.4744  0.5819
  235DMF     N1 3299   1.675   3.203   3.062 -0.1816  0.3719  0.3796
  235DMF     C2 3300   1.561   3.220   3.149 -0.1931 -0.1473  0.1306
  235DMF     C3 3301   1.732   3.316   2.990 -0.0914 -0.0449 -0.2860
  235DMF     O1 3302   1.828   3.305   2.911 -0.1682 -0.1500  0.3048
  235DMF     H1 3303   1.755   3.059   2.936 -0.8752  2.8036  0.1512
  235DMF     H2 3304   1.674   2.989   3.080  0.1215 -0.5618 -1.5690
  235DMF     H3 3305   1.837   3.065   3.089  0.6745 -2.1269 -0.9528
  235DMF     H4 3306   1.582   3.299   3.222 -0.0588 -0.2110  0.1618
  235DMF     H5 3307   1.520   3.133   3.202 -2.0342 -1.3228 -3.1141
  235DMF     H6 3308   1.475   3.255   3.091 -1.3538 -0.3471  1.7251
  235DMF     H7 3309   1.683   3.414   3.002 -0.9695 -0.4689 -0.4057
  236DMF     C1 3310   0.752   2.710   3.407  0.5572 -0.0352  0.7684
  236DMF     N1 3311   0.670   2.774   3.504  0.4653 -0.3140  0.0538
  236DMF     C2 3312   0.735   2.839   3.620 -0.0320 -0.3107  0.3533
  236DMF     C3 3313   0.531   2.755   3.496 -0.1137 -0.7691 -0.4869
  236DMF     O1 3314   0.471   2.701   3.404 -0.4210  0.4501 -0.2509
  236DMF     H1 3315   0.857   2.738   3.416  0.1126  1.0431  3.3988
  236DMF     H2 3316   0.720   2.742   3.307  0.5963  0.8648  1.0332
  236DMF     H3 3317   0.738   2.603   3.426 -3.1526  0.5187  1.5810
  236DMF     H4 3318   0.655   2.881   3.682 -1.1601 -0.9705 -0.6485
  236DMF     H5 3319   0.809   2.913   3.586 -0.9395  0.2367 -0.4383
  236DMF     H6 3320   0.792   2.771   3.686  0.4308 -0.9441 -0.6840
  236DMF     H7 3321   0.485   2.782   3.593  0.4525 -1.8253  0.0833
  237DMF     C1 3322   0.857   1.621   3.553 -0.2334 -0.1294 -0.2064
  237DMF     N1 3323   0.757   1.606   3.664  0.1053 -0.2812 -0.5439
  237DMF     C2 3324   0.666   1.721   3.694  0.1153  0.1812  0.2789
  237DMF     C3 3325   0.740   1.484   3.731  0.1577 -0.1734  0.2270
  237DMF     O1 3326   0.804   1.383   3.701 -0.3589  0.2457 -0.0035
  237DMF     H1 3327   0.840   1.545   3.476 -0.1750  0.7943 -1.1426
  237DMF     H2 3328   0.953   1.600   3.602 -0.2869 -1.9285 -0.8248
  237DMF     H3 3329   0.866   1.721   3.509 -1.1297 -0.0256 -0.1554
  237DMF     H4 3330   0.664   1.784   3.604  1.3518 -1.4251 -0.9126
  237DMF     H5 3331   0.697   1.769   3.787 -0.5135 -0.7981  0.9994
  237DMF     H6 3332   0.561   1.690   3.706  0.3453 -0.4848  0.5544
  237DMF     H7 3333   0.674   1.505   3.818 -0.5709 -0.0977 -0.3375
  238DMF     C1 3334   2.424   0.021   3.417  0.5832 -0.0535  0.1673
  238DMF     N1 3335   2.375   0.088   3.540  0.0919 -0.1138  0.2688
  238DMF     C2 3336   2.420   0.034   3.669  0.3675 -0.1424  0.0112
  238DMF     C3 3337   2.284   0.197   3.548 -0.2019 -0.1831  0.2322
  238DMF     O1 3338   2.230   0.242   3.444  0.3128 -0.5901  0.3814
  238DMF     H1 3339   2.510   0.079   3.383  1.0732 -1.6612 -1.4070
  238DMF     H2 3340   2.348   0.017   3.338 -0.7185 -0.5185  1.4196
  238DMF     H3 3341   2.468  -0.079   3.431  0.1726 -0.2117  0.3600
  238DMF     H4 3342   2.503  -0.037   3.661  1.8019  1.4121  0.7572
  238DMF     H5 3343   2.336  -0.017   3.718  0.6864 -0.8700 -0.1994
  238DMF     H6 3344   2.451   0.122   3.727 -0.0284  0.3391 -0.5015
  238DMF     H7 3345   2.270   0.240   3.649  1.9618  0.9484  0.0754
  239DMF     C1 3346   0.102   0.916   2.666  0.4528  0.1629 -0.1865
  239DMF     N1 3347   0.111   0.800   2.574 -0.5619 -0.1074 -0.7299
  239DMF     C2 3348   0.009   0.697   2.585 -0.6516 -0.1412  0.7065
  239DMF     C3 3349   0.226   0.779   2.494  0.8565 -0.1897 -0.9917
  239DMF     O1 3350   0.321   0.849   2.497  0.0902 -0.4071  0.1911
  239DMF     H1 3351  -0.003   0.948   2.662  0.0071 -1.3636 -1.1666
  239DMF     H2 3352   0.163   1.002   2.636 -0.1002  0.9385  0.8818
  239DMF     H3 3353   0.121   0.887   2.770  1.3454  0.8950 -0.1402
  239DMF     H4 3354  -0.070   0.731   2.517  0.6979 -4.2875 -3.1317
  239DMF     H5 3355  -0.040   0.697   2.684 -2.0382  1.2845  0.0348
  239DMF     H6 3356   0.053   0.602   2.553  2.0763  1.7602 -1.3987
  239DMF     H7 3357   0.208   0.699   2.420 -1.1607 -0.6084 -0.0878
  240DMF     C1 3358   0.522   1.156   2.847 -0.6627 -0.8850  0.1017
  240DMF     N1 3359   0.487   1.021   2.804 -0.4946 -0.2379  0.0416
  240DMF     C2 3360   0.403   0.947   2.893 -0.4574 -0.2210 -0.1188
  240DMF     C3 3361   0.561   0.949   2.705  0.5702 -0.4062 -0.6038
  240DMF     O1 3362   0.634   1.005   2.627  0.2011 -0.1072 -0.3878
  240DMF     H1 3363   0.631   1.173   2.840 -0.3067 -3.8466 -2.6780
  240DMF     H2 3364   0.497   1.152   2.954 -2.2504 -0.9606 -0.2665
  240DMF     H3 3365   0.458   1.238   2.813 -0.2759 -0.1773  1.0230
  240DMF     H4 3366   0.452   0.956   2.991  0.1846  0.0196 -0.4608
  240DMF     H5 3367   0.373   0.846   2.863 -0.8235  0.0988 -0.8503
  240DMF     H6 3368   0.310   1.005   2.901  0.4201  1.6331 -2.7073
  240DMF     H7 3369   0.546   0.839   2.707 -2.2297 -0.0450  0.5039
  241DMF     C1 3370   0.489   2.902   3.110  0.0392  0.1016  0.1586
  241DMF     N1 3371   0.366   2.897   3.038  0.3300  0.0561  0.2450
  241DMF     C2 3372   0.246   2.921   3.120  0.0848 -0.0660  0.0953
  241DMF     C3 3373   0.362   2.844   2.902 -0.2403  0.1539  0.5612
  241DMF     O1 3374   0.463   2.794   2.854 -0.0841  0.0626  0.8697
  241DMF     H1 3375   0.505   2.804   3.157  2.0180  0.1035 -0.4479
  241DMF     H2 3376   0.479   2.977   3.190 -2.8213 -1.1637  1.0458
  241DMF     H3 3377   0.567   2.941   3.044  0.7771  0.6748  1.3499
  241DMF     H4 3378   0.174   2.841   3.099  1.5523 -1.2897 -0.3500
  241DMF     H5 3379   0.216   3.025   3.101  1.8743  0.6600  1.1358
  241DMF     H6 3380   0.283   2.917   3.223  1.3869  2.2715 -0.2448
  241DMF     H7 3381   0.264   2.856   2.853 -0.5697 -1.2584  0.8448
  242DMF     C1 3382   3.240   2.313   3.385  0.5371  0.1683 -0.2048
  242DMF     N1 3383   3.164   2.414   3.465  0.2329  0.0646  0.3221
  242DMF     C2 3384   3.108   2.528   3.387 -0.4182 -0.0729 -0.2743
  242DMF     C3 3385   3.138   2.393   3.602 -0.1153 -0.0871  0.2384
  242DMF     O1 3386   3.177   2.290   3.656 -0.1713  0.1934  0.0236
  242DMF     H1 3387   3.347   2.335   3.395  0.1444  1.7807  0.6649
  242DMF     H2 3388   3.214   2.317   3.279  0.9407 -1.5378 -0.3706
  242DMF     H3 3389   3.217   2.213   3.421 -0.6513  0.3815 -0.3509
  242DMF     H4 3390   3.197   2.575   3.344  1.4532 -1.0238  2.4120
  242DMF     H5 3391   3.047   2.601   3.441 -1.4441 -1.7183  0.8326
  242DMF     H6 3392   3.049   2.485   3.306  1.1148 -0.2713 -1.2942
  242DMF     H7 3393   3.093   2.480   3.653 -0.2411  0.9331 -1.5757
  243DMF     C1 3394   2.022   1.257   3.057  0.7705 -0.0633 -0.2784
  243DMF     N1 3395   1.946   1.338   3.159  0.4391 -0.3003  0.0361
  243DMF     C2 3396   1.933   1.282   3.297  0.6307  0.4162  0.7178
  243DMF     C3 3397   1.911   1.473   3.131 -0.5641  0.8802 -0.1570
  243DMF     O1 3398   1.925   1.520   3.019  0.3489 -0.1893 -0.1228
  243DMF     H1 3399   1.951   1.236   2.976 -0.3909 -1.1850  0.9868
  243DMF     H2 3400   2.067   1.167   3.101  0.6497  1.1381  2.4457
  243DMF     H3 3401   2.087   1.331   3.011 -2.0035  1.7322 -1.4566
  243DMF     H4 3402   1.835   1.298   3.345  0.5165  0.0159  0.6151
  243DMF     H5 3403   2.006   1.324   3.367  2.8852 -0.7332 -0.9186
  243DMF     H6 3404   1.936   1.173   3.291  0.8530  0.5078 -0.8775
  243DMF     H7 3405   1.856   1.513   3.218  1.1913 -1.4155  2.0817
  244DMF     C1 3406   1.427   0.267   3.799  0.1054  0.0771 -0.1230
  244DMF     N1 3407   1.476   0.391   3.741 -0.3353 -0.3644  0.4976
  244DMF     C2 3408   1.389   0.502   3.737  0.1121 -0.4590  0.6208
  244DMF     C3 3409   1.599   0.392   3.674 -0.5135  0.3626 -0.2321
  244DMF     O1 3410   1.673   0.297   3.668  0.3242  0.5716  0.2784
  244DMF     H1 3411   1.330   0.284   3.846  0.0627 -0.6262  0.0407
  244DMF     H2 3412   1.509   0.224   3.857 -0.4397  1.7165  1.9275
  244DMF     H3 3413   1.409   0.196   3.718  2.9917  1.7457 -2.3520
  244DMF     H4 3414   1.358   0.521   3.633  2.2614 -1.0096 -0.1505
  244DMF     H5 3415   1.439   0.596   3.762  0.1315 -0.3519  0.1759
  244DMF     H6 3416   1.302   0.488   3.802  0.1966  0.5859  0.9738
  244DMF     H7 3417   1.628   0.488   3.627  0.5591  0.1851  0.0564
  245DMF     C1 3418   3.040   2.879   0.133 -0.5966  0.3599  0.1385
  245DMF     N1 3419   2.996   2.761   0.055  0.3685  0.1386  0.7565
  245DMF     C2 3420   2.882   2.784  -0.032 -0.4054  0.2531  0.0839
  245DMF     C3 3421   3.050   2.627   0.076  0.8993 -0.9566  0.3447
  245DMF     O1 3422   3.158   2.610   0.133 -0.1637  0.3427 -0.2259
  245DMF     H1 3423   2.996   2.963   0.079 -2.0171 -0.7870 -0.5477
  245DMF     H2 3424   3.148   2.891   0.147 -0.8132  0.6634  1.6345
  245DMF     H3 3425   2.996   2.886   0.233 -1.0049 -0.3230  0.0094
  245DMF     H4 3426   2.787   2.763   0.019 -0.0342  0.5833  0.9129
  245DMF     H5 3427   2.884   2.726  -0.125 -0.4538  1.4470 -0.6764
  245DMF     H6 3428   2.869   2.886  -0.071  2.5514  0.8885  0.6579
  245DMF     H7 3429   2.987   2.552   0.027 -0.5788  1.1562 -1.0719
  246DMF     C1 3430   2.078   0.960   3.481 -0.2501 -0.1004  0.2271
  246DMF     N1 3431   2.075   0.991   3.624 -0.2771  0.5478 -0.7898
  246DMF     C2 3432   2.026   0.882   3.710  0.0284  0.0204 -0.7283
  246DMF     C3 3433   2.124   1.116   3.682  0.1017 -0.2705  0.2726
  246DMF     O1 3434   2.150   1.208   3.607 -0.0140  0.4067  0.0519
  246DMF     H1 3435   2.104   1.043   3.415 -0.1053  0.1979  0.6547
  246DMF     H2 3436   1.977   0.931   3.452 -0.7320 -0.0276  1.7643
  246DMF     H3 3437   2.147   0.876   3.463 -1.4607 -0.7712 -1.3369
  246DMF     H4 3438   1.926   0.900   3.753 -0.4387 -1.3565 -1.2138
  246DMF     H5 3439   2.091   0.882   3.797  1.1099  0.4311 -1.5209
  246DMF     H6 3440   2.042   0.788   3.657  3.1905  1.4313 -2.4590
  246DMF     H7 3441   2.128   1.124   3.792  0.1199 -2.1703  0.4356
  247DMF     C1 3442   0.181   1.625   2.326 -0.1750  0.2062 -0.2357
  247DMF     N1 3443   0.210   1.752   2.274 -0.1294  0.1323 -0.1358
  247DMF     C2 3444   0.098   1.822   2.216 -0.1543 -0.2860  0.5745
  247DMF     C3 3445   0.339   1.790   2.224 -0.0386 -0.5960  0.1038
  247DMF     O1 3446   0.435   1.719   2.251 -0.3311  0.3623  0.6231
  247DMF     H1 3447   0.077   1.631   2.359  0.2072  1.6446  0.7711
  247DMF     H2 3448   0.235   1.594   2.416 -0.3507  1.5543  0.3523
  247DMF     H3 3449   0.182   1.541   2.255  0.7426 -0.3203  0.3946
  247DMF     H4 3450   0.015   1.844   2.284 -0.1745 -0.8752  0.7401
  247DMF     H5 3451   0.067   1.752   2.138  1.8331 -0.2211 -0.2937
  247DMF     H6 3452   0.138   1.914   2.172  1.6619  0.4555  3.6136
  247DMF     H7 3453   0.338   1.880   2.160 -1.8018 -0.1998  0.6594
  248DMF     C1 3454   0.269   2.554   3.152 -0.1618  0.0587 -0.0721
  248DMF     N1 3455   0.182   2.467   3.061 -0.2470  0.0729  0.1090
  248DMF     C2 3456   0.147   2.491   2.916  0.5111 -0.0217  0.3899
  248DMF     C3 3457   0.121   2.357   3.124  0.1246  0.6174 -0.1514
  248DMF     O1 3458   0.144   2.325   3.239  0.2706 -0.3694  0.5504
  248DMF     H1 3459   0.210   2.576   3.243  0.7262 -0.3111  0.5986
  248DMF     H2 3460   0.298   2.646   3.100  0.5197 -0.8016 -1.2274
  248DMF     H3 3461   0.354   2.491   3.178 -1.4735 -1.4830  0.5770
  248DMF     H4 3462   0.088   2.582   2.900  0.9394  0.2196  0.1673
  248DMF     H5 3463   0.090   2.405   2.879  1.0250 -0.5610  0.8326
  248DMF     H6 3464   0.237   2.495   2.853 -0.2645  0.9489 -0.6699
  248DMF     H7 3465   0.038   2.317   3.063 -0.0252  0.0674  0.4122
  249DMF     C1 3466   3.254   0.117   2.523  0.0368  0.1323 -0.1490
  249DMF     N1 3467   3.234   0.001   2.447 -0.3212  0.0025 -0.2510
  249DMF     C2 3468   3.253   0.017   2.295 -0.7993 -0.0076 -0.1409
  249DMF     C3 3469   3.233  -0.125   2.509 -0.0447  0.0940 -0.2725
  249DMF     O1 3470   3.224  -0.140   2.627 -0.2629  0.0790 -0.2530
  249DMF     H1 3471   3.244   0.215   2.473  0.6760  1.0780  1.5412
  249DMF     H2 3472   3.359   0.115   2.553 -0.0640  1.3561  0.3201
  249DMF     H3 3473   3.188   0.114   2.610 -0.0492 -0.9233 -0.2479
  249DMF     H4 3474   3.350   0.059   2.265 -2.4983  2.2884 -2.6351
  249DMF     H5 3475   3.171   0.080   2.260 -1.8486 -1.8345 -1.0435
  249DMF     H6 3476   3.272  -0.081   2.250  1.1227 -0.0024  0.5889
  249DMF     H7 3477   3.237  -0.209   2.437  0.6326  0.5098 -0.7249
  250DMF     C1 3478   2.044   2.098   2.231 -0.7562 -0.5157 -0.0084
  250DMF     N1 3479   1.912   2.155   2.239 -0.4024  0.0860 -0.2838
  250DMF     C2 3480   1.802   2.060   2.230  0.2952 -0.2306 -0.0448
  250DMF     C3 3481   1.891   2.294   2.214  0.4466 -0.0758 -0.1151
  250DMF     O1 3482   1.978   2.374   2.214 -0.0518 -0.0168 -0.4114
  250DMF     H1 3483   2.100   2.145   2.149 -0.0663  1.2712  1.4500
  250DMF     H2 3484   2.041   1.990   2.212 -0.0145 -0.0365 -3.0617
  250DMF     H3 3485   2.098   2.118   2.324  0.6322 -1.0376 -0.6792
  250DMF     H4 3486   1.712   2.093   2.176 -0.9822 -2.1900  0.8179
  250DMF     H5 3487   1.767   2.030   2.329 -1.4553 -1.1629 -0.9143
  250DMF     H6 3488   1.836   1.967   2.182 -1.5350 -1.4195  0.9277
  250DMF     H7 3489   1.784   2.320   2.198  0.0176 -1.7334 -0.0824
  251DMF     C1 3490   0.373   0.218   2.217 -0.0078 -0.0042 -0.0833
  251DMF     N1 3491   0.271   0.209   2.329 -0.6038 -0.1246 -0.0260
  251DMF     C2 3492   0.253   0.076   2.383  0.2782  0.2386 -0.3940
  251DMF     C3 3493   0.198   0.322   2.371 -0.6461 -0.2005  0.1692
  251DMF     O1 3494   0.229   0.429   2.325  0.0148  0.0926  0.0496
  251DMF     H1 3495   0.359   0.308   2.155 -1.0870 -1.2765 -1.7317
  251DMF     H2 3496   0.351   0.130   2.154 -0.4182  0.1643 -0.1753
  251DMF     H3 3497   0.474   0.214   2.259 -0.6189  1.7816  1.6216
  251DMF     H4 3498   0.333   0.044   2.451  0.8411  0.6012 -0.8885
  251DMF     H5 3499   0.244   0.002   2.302  2.0806  0.8542 -1.1673
  251DMF     H6 3500   0.161   0.074   2.443  1.4199 -0.0360  1.4079
  251DMF     H7 3501   0.114   0.301   2.439 -0.6150  1.0184  0.5962
  252DMF     C1 3502   2.424   0.800   3.470  0.6487  0.3751 -1.1802
  252DMF     N1 3503   2.407   0.787   3.612 -0.3508 -0.4829  0.3519
  252DMF     C2 3504   2.419   0.912   3.699 -0.4758 -0.2126 -0.0420
  252DMF     C3 3505   2.382   0.665   3.676 -0.2557 -0.0522 -0.2797
  252DMF     O1 3506   2.362   0.565   3.614 -0.1019 -0.1687 -0.2383
  252DMF     H1 3507   2.511   0.750   3.426  0.3866 -1.3460  0.2256
  252DMF     H2 3508   2.412   0.903   3.432 -0.9398  0.5666 -0.2038
  252DMF     H3 3509   2.335   0.743   3.440 -0.2015  0.1600  1.5830
  252DMF     H4 3510   2.380   0.893   3.800 -2.4534 -0.3237 -0.8172
  252DMF     H5 3511   2.368   0.995   3.648 -0.7725  0.4474  1.2948
  252DMF     H6 3512   2.523   0.944   3.709 -1.0719  1.1800  1.9557
  252DMF     H7 3513   2.380   0.674   3.786 -0.3688  3.1719 -0.5214
  253DMF     C1 3514   1.183   0.799   2.637  0.6424 -0.0068 -0.0213
  253DMF     N1 3515   1.033   0.803   2.595 -0.4593 -1.1416  0.2605
  253DMF     C2 3516   0.971   0.691   2.515 -0.5891 -0.0202  0.0416
  253DMF     C3 3517   0.952   0.910   2.617  0.3322 -0.0719 -0.6860
  253DMF     O1 3518   0.995   1.019   2.669  0.0694  0.4435 -0.4117
  253DMF     H1 3519   1.253   0.780   2.554  0.7663  1.0088 -0.1555
  253DMF     H2 3520   1.192   0.721   2.713 -1.6814 -0.0623  0.2183
  253DMF     H3 3521   1.216   0.893   2.682  1.4240 -0.6046  0.6763
  253DMF     H4 3522   0.869   0.682   2.556 -0.7791 -1.5333 -0.7384
  253DMF     H5 3523   1.026   0.600   2.542  3.3054  2.9763  2.7055
  253DMF     H6 3524   0.980   0.717   2.409  2.3903 -0.0853  0.2405
  253DMF     H7 3525   0.848   0.894   2.585  0.2436  0.2723 -0.5762
  254DMF     C1 3526   0.408   2.200   2.932  0.3718  0.3556  0.6541
  254DMF     N1 3527   0.534   2.189   2.862  0.5964  0.9152 -0.4119
  254DMF     C2 3528   0.578   2.284   2.762  0.2151 -0.0320  0.2862
  254DMF     C3 3529   0.623   2.095   2.904 -0.0633  0.4483  0.4791
  254DMF     O1 3530   0.601   2.006   2.984 -0.2806 -0.1208  0.0334
  254DMF     H1 3531   0.433   2.255   3.024 -0.1336  1.1297  0.3377
  254DMF     H2 3532   0.364   2.104   2.961  1.2670 -0.8813 -1.9184
  254DMF     H3 3533   0.336   2.259   2.873  0.7179 -0.5260 -0.6720
  254DMF     H4 3534   0.622   2.219   2.686  1.2624  0.6426  0.3104
  254DMF     H5 3535   0.659   2.337   2.813 -0.8691  1.3546  0.5923
  254DMF     H6 3536   0.497   2.354   2.736  0.7783  0.2476 -0.7080
  254DMF     H7 3537   0.723   2.116   2.862 -1.0631  2.2836 -1.0929
  255DMF     C1 3538   1.745   0.685   3.467 -0.2179  0.1617 -0.1009
  255DMF     N1 3539   1.623   0.769   3.439  0.6167 -0.4567  0.5029
  255DMF     C2 3540   1.654   0.919   3.439  0.2066  0.1256 -0.1241
  255DMF     C3 3541   1.497   0.710   3.432 -0.0468  0.7525  0.4019
  255DMF     O1 3542   1.487   0.588   3.428  0.0658 -0.0732 -0.6621
  255DMF     H1 3543   1.831   0.731   3.416  0.7560 -0.7354  0.7132
  255DMF     H2 3544   1.727   0.584   3.427  0.8046 -0.2764  0.5029
  255DMF     H3 3545   1.763   0.669   3.574  1.2829 -0.3855 -0.4119
  255DMF     H4 3546   1.683   0.950   3.338 -0.6562  0.8132 -0.1683
  255DMF     H5 3547   1.725   0.949   3.518 -1.6909  1.1409  1.2545
  255DMF     H6 3548   1.556   0.968   3.449  1.1839  2.1558 -0.0522
  255DMF     H7 3549   1.414   0.784   3.429 -1.7253 -1.1596 -3.3861
  256DMF     C1 3550   0.731   0.088   2.307  0.5162 -0.3285  0.8004
  256DMF     N1 3551   0.856   0.025   2.253 -0.6289  0.6211 -0.5171
  256DMF     C2 3552   0.976   0.106   2.248 -0.3076  0.1999  0.8743
  256DMF     C3 3553   0.865  -0.115   2.235 -0.1290 -0.3639 -0.6282
  256DMF     O1 3554   0.769  -0.187   2.242  0.3471  0.0719 -0.0498
  256DMF     H1 3555   0.710   0.179   2.249 -0.0950 -0.2498  1.1442
  256DMF     H2 3556   0.748   0.129   2.407  1.8517  1.3502 -0.0876
  256DMF     H3 3557   0.638   0.030   2.302 -0.1084  0.7002 -0.1215
  256DMF     H4 3558   1.027   0.097   2.345  4.1021 -1.4956 -1.4779
  256DMF     H5 3559   0.945   0.209   2.229 -0.4369 -0.0278 -0.1709
  256DMF     H6 3560   1.042   0.071   2.168  2.0129 -0.9092  3.1908
  256DMF     H7 3561   0.965  -0.145   2.199  0.7223  1.3446  0.2632
  257DMF     C1 3562   0.728   0.472   2.622 -0.7060  0.1302 -0.3645
  257DMF     N1 3563   0.673   0.345   2.677 -0.5881 -0.5602  0.3096
  257DMF     C2 3564   0.582   0.260   2.600  0.7727 -0.1781 -0.2520
  257DMF     C3 3565   0.711   0.309   2.808 -0.4898  0.8507 -0.3398
  257DMF     O1 3566   0.783   0.374   2.878  0.3167  0.4703  0.2951
  257DMF     H1 3567   0.805   0.446   2.549 -1.5557  1.6681 -1.8415
  257DMF     H2 3568   0.763   0.532   2.707 -2.4270  2.1218 -1.0311
  257DMF     H3 3569   0.645   0.522   2.571 -0.9046 -1.9347 -2.1540
  257DMF     H4 3570   0.479   0.272   2.636 -0.5319 -2.3326 -3.0934
  257DMF     H5 3571   0.602   0.153   2.613 -0.2766 -0.1659  1.6337
  257DMF     H6 3572   0.585   0.282   2.493 -5.1845  1.0682 -0.3761
  257DMF     H7 3573   0.670   0.215   2.847 -0.5300  1.3911  0.9557
  258DMF     C1 3574   2.114   2.967   0.506  0.1943 -0.0926 -0.3928
  258DMF     N1 3575   2.124   2.817   0.511 -0.4806 -0.0847  0.0473
  258DMF     C2 3576   2.254   2.761   0.549 -0.1239 -0.2723 -0.5744
  258DMF     C3 3577   2.021   2.739   0.455  0.0311 -0.9374 -0.5074
  258DMF     O1 3578   1.914   2.784   0.420 -0.1566  0.2302  0.2535
  258DMF     H1 3579   2.206   3.003   0.457  0.2214 -1.1279 -1.1214
  258DMF     H2 3580   2.108   3.009   0.607 -0.6727 -0.0455 -0.4610
  258DMF     H3 3581   2.017   2.995   0.464 -0.1158 -2.1732 -1.1131
  258DMF     H4 3582   2.310   2.850   0.578 -1.2948 -0.4771  2.4796
  258DMF     H5 3583   2.307   2.715   0.465 -1.3891  1.5812 -2.4377
  258DMF     H6 3584   2.239   2.688   0.629  2.3437 -0.0646  0.1117
  258DMF     H7 3585   2.035   2.629   0.457 -2.0294 -1.2257  3.0053
  259DMF     C1 3586   0.616   2.532   3.050  0.5927 -0.0080  0.5970
  259DMF     N1 3587   0.758   2.552   3.041 -0.1874 -0.1003  0.3032
  259DMF     C2 3588   0.804   2.643   2.940  0.5925 -0.1341  0.3450
  259DMF     C3 3589   0.840   2.510   3.148 -0.2746 -0.1598  0.3031
  259DMF     O1 3590   0.794   2.438   3.240  0.5131 -0.4830  0.1866
  259DMF     H1 3591   0.586   2.437   3.003  2.2638 -0.2748  0.0202
  259DMF     H2 3592   0.564   2.607   2.990 -0.5786 -1.6707 -0.5140
  259DMF     H3 3593   0.583   2.530   3.155 -2.4314 -0.1079 -0.3027
  259DMF     H4 3594   0.753   2.741   2.939  0.4869 -0.1905  0.0750
  259DMF     H5 3595   0.789   2.588   2.846  0.7509 -2.7878  1.8480
  259DMF     H6 3596   0.911   2.654   2.958  0.1463 -0.0919  3.1713
  259DMF     H7 3597   0.937   2.561   3.142 -0.7972  0.6946 -1.1127
  260DMF     C1 3598   1.437   0.075   3.368 -0.1646  0.3270 -0.0200
  260DMF     N1 3599   1.495   0.175   3.274 -0.1726  0.3164  0.4774
  260DMF     C2 3600   1.565   0.290   3.339  0.0057  0.8910 -0.1041
  260DMF     C3 3601   1.495   0.147   3.134  0.1905 -0.1124 -0.1486
  260DMF     O1 3602   1.446   0.050   3.083 -0.1951  0.1736 -0.5447
  260DMF     H1 3603   1.521   0.024   3.416 -0.2397 -0.2036 -0.4460
  260DMF     H2 3604   1.388  -0.004   3.309 -2.2374  2.2527 -0.9463
  260DMF     H3 3605   1.359   0.117   3.433 -0.6545  0.4827 -0.7035
  260DMF     H4 3606   1.536   0.379   3.282 -0.9142 -0.1429 -1.2730
  260DMF     H5 3607   1.673   0.277   3.326 -0.2530 -1.3081 -0.2730
  260DMF     H6 3608   1.534   0.323   3.439  0.0112  0.5773  0.0025
  260DMF     H7 3609   1.557   0.214   3.071 -1.6074  0.1714 -1.6333
  261DMF     C1 3610   1.388   1.537   2.332 -0.0760  0.7795 -0.0576
  261DMF     N1 3611   1.525   1.524   2.274 -0.0962  0.4041  0.5388
  261DMF     C2 3612   1.617   1.642   2.277  0.4992 -0.2121  0.8833
  261DMF     C3 3613   1.570   1.401   2.212 -0.3773  0.3125 -0.1538
  261DMF     O1 3614   1.509   1.300   2.226  0.8862  0.2604 -0.1151
  261DMF     H1 3615   1.346   1.437   2.351 -1.8734  1.3737 -0.8929
  261DMF     H2 3616   1.333   1.612   2.275 -2.2435 -0.7650 -0.0326
  261DMF     H3 3617   1.398   1.582   2.432 -0.6986 -1.2443  0.9508
  261DMF     H4 3618   1.714   1.607   2.239 -0.6078 -1.2483 -1.0337
  261DMF     H5 3619   1.616   1.670   2.383 -1.6809 -0.9144  1.0663
  261DMF     H6 3620   1.597   1.732   2.217 -1.8220 -0.0630  1.8221
  261DMF     H7 3621   1.674   1.404   2.177  0.2755 -0.0095  1.6740
  262DMF     C1 3622   0.907   2.993   0.314  0.1468 -0.1534  0.3754
  262DMF     N1 3623   0.926   3.126   0.250 -0.2642  0.2542 -0.4429
  262DMF     C2 3624   0.922   3.137   0.108  1.0446  0.4320 -0.0525
  262DMF     C3 3625   0.941   3.238   0.334 -0.5309 -0.4537 -0.3853
  262DMF     O1 3626   0.947   3.234   0.458  0.1956  0.5775 -0.6668
  262DMF     H1 3627   0.867   3.000   0.416 -2.4365 -1.1039 -0.5391
  262DMF     H2 3628   0.994   2.927   0.314 -1.4017 -2.2567  0.7644
  262DMF     H3 3629   0.828   2.940   0.259  0.9559 -0.4191 -0.5280
  262DMF     H4 3630   0.881   3.233   0.076  0.9077  0.9138  1.4953
  262DMF     H5 3631   0.865   3.052   0.070 -1.1369  1.9047 -0.1195
  262DMF     H6 3632   1.019   3.124   0.058  0.0657  0.9694 -2.0986
  262DMF     H7 3633   0.965   3.328   0.275 -0.2331 -0.7161 -0.6632
  263DMF     C1 3634   0.032   2.685   2.585 -0.3750 -0.2497 -0.4987
  263DMF     N1 3635  -0.073   2.763   2.658 -0.7141 -1.1840  0.4540
  263DMF     C2 3636  -0.209   2.713   2.672 -0.4414  0.1967  0.7504
  263DMF     C3 3637  -0.054   2.894   2.694  0.0103 -0.2530 -0.2090
  263DMF     O1 3638   0.050   2.955   2.678 -0.4856  0.8515  0.2280
  263DMF     H1 3639   0.008   2.579   2.576  2.6236 -0.8609 -1.7159
  263DMF     H2 3640   0.125   2.695   2.641 -0.6385  2.7786 -0.4692
  263DMF     H3 3641   0.042   2.730   2.485 -0.3968  1.0843  0.0766
  263DMF     H4 3642  -0.225   2.691   2.778  1.6295  2.6132  1.6036
  263DMF     H5 3643  -0.219   2.623   2.609  0.8921  1.1094 -0.7851
  263DMF     H6 3644  -0.280   2.788   2.636  1.1245  1.9495  1.2924
  263DMF     H7 3645  -0.139   2.947   2.741  2.1827  1.9367  1.3641
  264DMF     C1 3646   2.196   1.165   2.355  0.2771  0.2276 -0.8838
  264DMF     N1 3647   2.253   1.035   2.308  0.3490 -0.1932  0.0305
  264DMF     C2 3648   2.398   1.028   2.283 -0.4633  0.5894 -0.6224
  264DMF     C3 3649   2.162   0.931   2.283  0.2241  0.6292 -0.1989
  264DMF     O1 3650   2.040   0.935   2.303  0.2116 -0.0840 -0.3249
  264DMF     H1 3651   2.274   1.239   2.379  0.5501  0.3193 -2.0190
  264DMF     H2 3652   2.135   1.142   2.444 -2.1751 -0.8735 -2.7982
  264DMF     H3 3653   2.134   1.195   2.271  1.3004 -1.5394 -2.3140
  264DMF     H4 3654   2.414   1.062   2.180  1.7497 -0.9639 -0.8268
  264DMF     H5 3655   2.427   0.924   2.301  0.9348  1.0328 -0.2660
  264DMF     H6 3656   2.450   1.094   2.353  1.2852 -1.7026  0.3088
  264DMF     H7 3657   2.213   0.846   2.235 -0.4595 -0.2301  0.5996
  265DMF     C1 3658   2.513   2.686   2.666  0.3953  0.8001  0.1861
  265DMF     N1 3659   2.379   2.686   2.738 -0.2924  0.1269 -0.3303
  265DMF     C2 3660   2.260   2.615   2.673 -0.4120 -0.1454 -0.4847
  265DMF     C3 3661   2.359   2.773   2.846  0.0872 -0.2313  0.3735
  265DMF     O1 3662   2.445   2.848   2.879  0.2149 -0.1737  0.4986
  265DMF     H1 3663   2.532   2.793   2.649 -0.1627  0.9661  0.5715
  265DMF     H2 3664   2.498   2.616   2.583 -2.5034  0.4445  0.9445
  265DMF     H3 3665   2.587   2.636   2.730 -0.8431 -0.5247  0.6300
  265DMF     H4 3666   2.267   2.510   2.704  1.1656  0.3361  0.8876
  265DMF     H5 3667   2.250   2.623   2.564 -1.2893  2.8277 -0.2135
  265DMF     H6 3668   2.171   2.654   2.723 -1.3019  1.9189 -3.5431
  265DMF     H7 3669   2.262   2.762   2.897 -0.1623  2.1473  0.4856
  266DMF     C1 3670   0.514   2.596   2.592  0.1458  0.2565 -0.3222
  266DMF     N1 3671   0.419   2.659   2.491 -0.5296 -0.5578  0.5799
  266DMF     C2 3672   0.359   2.785   2.504 -0.4973  0.6090  0.0820
  266DMF     C3 3673   0.381   2.594   2.374 -0.2101  0.4921  0.1364
  266DMF     O1 3674   0.407   2.477   2.353  0.2418  0.6018  0.0494
  266DMF     H1 3675   0.590   2.672   2.614  0.0572  0.3799 -0.4375
  266DMF     H2 3676   0.561   2.502   2.560 -2.9324 -1.5451  0.2224
  266DMF     H3 3677   0.461   2.587   2.687  0.1821 -0.4279 -0.3632
  266DMF     H4 3678   0.288   2.813   2.425 -0.5175 -0.6607 -0.3546
  266DMF     H5 3679   0.437   2.862   2.514  0.2342  0.4023 -3.3349
  266DMF     H6 3680   0.303   2.794   2.598 -2.1917 -0.2481 -0.8359
  266DMF     H7 3681   0.327   2.659   2.302  2.6108 -0.2518 -2.7751
  267DMF     C1 3682   1.523   1.751   2.820 -0.6084 -0.6236  0.4953
  267DMF     N1 3683   1.485   1.846   2.929 -0.0863 -0.0947 -0.0522
  267DMF     C2 3684   1.575   1.875   3.041  0.4046  0.5111 -0.2635
  267DMF     C3 3685   1.382   1.936   2.901  0.5528  0.3714  0.2101
  267DMF     O1 3686   1.307   1.930   2.805  0.3783  0.0726  0.4043
  267DMF     H1 3687   1.578   1.794   2.736 -1.1249  0.1321  0.5324
  267DMF     H2 3688   1.430   1.704   2.785  0.4992 -3.2741  1.0319
  267DMF     H3 3689   1.581   1.666   2.858 -2.3956 -1.2824  1.8237
  267DMF     H4 3690   1.649   1.797   3.065 -0.7263 -0.2066  0.9156
  267DMF     H5 3691   1.514   1.889   3.130  2.6022 -1.2947  1.5914
  267DMF     H6 3692   1.627   1.971   3.028 -0.2443  1.1402  1.6425
  267DMF     H7 3693   1.386   2.016   2.977  2.0830  2.5361 -2.1235
  268DMF     C1 3694   1.466   1.981   2.246 -0.3051 -0.0688 -0.1386
  268DMF     N1 3695   1.397   1.922   2.366  0.1250 -0.4900 -0.4172
  268DMF     C2 3696   1.254   1.888   2.347 -0.3825 -0.3556 -0.0221
  268DMF     C3 3697   1.472   1.889   2.480 -0.4739  0.5429  0.3582
  268DMF     O1 3698   1.595   1.916   2.486  0.0057 -0.6131  0.2540
  268DMF     H1 3699   1.501   2.083   2.266  1.1777 -0.7104  0.6256
  268DMF     H2 3700   1.405   1.968   2.156 -1.7067 -0.6779  0.8936
  268DMF     H3 3701   1.561   1.927   2.238 -2.0010 -3.4467  1.7442
  268DMF     H4 3702   1.239   1.782   2.372 -1.0012 -0.6747 -1.6675
  268DMF     H5 3703   1.213   1.910   2.248 -2.9116  0.3335  1.1357
  268DMF     H6 3704   1.198   1.952   2.415 -1.2863 -0.6045 -0.5322
  268DMF     H7 3705   1.421   1.835   2.562  0.0156  0.5091  0.6399
  269DMF     C1 3706   0.471   2.278   3.646 -1.0050 -0.4145  0.3198
  269DMF     N1 3707   0.532   2.243   3.515  0.1915 -0.0735 -0.8299
  269DMF     C2 3708   0.520   2.338   3.403  0.2337 -0.5086  0.0939
  269DMF     C3 3709   0.579   2.114   3.492  0.9881 -0.2620  0.2064
  269DMF     O1 3710   0.582   2.025   3.577  0.1513  0.2914 -0.0483
  269DMF     H1 3711   0.391   2.209   3.673 -2.2466  1.4100  1.4141
  269DMF     H2 3712   0.430   2.380   3.639 -1.0984 -0.5104 -0.5405
  269DMF     H3 3713   0.550   2.293   3.722 -0.9010 -0.4093  0.2105
  269DMF     H4 3714   0.589   2.421   3.423  0.0892  0.5283 -3.3297
  269DMF     H5 3715   0.422   2.388   3.396  1.4019  1.9963  0.8075
  269DMF     H6 3716   0.549   2.296   3.306  0.4934  0.9951 -0.4985
  269DMF     H7 3717   0.621   2.114   3.390 -0.3254  1.1322 -0.3619
  270DMF     C1 3718   0.914   1.905   2.573  0.2519  0.0139 -0.2415
  270DMF     N1 3719   0.968   1.950   2.704  0.4252  1.0637  0.5047
  270DMF     C2 3720   0.991   1.847   2.814  0.0729 -0.4377  0.3334
  270DMF     C3 3721   1.024   2.076   2.719  0.5254 -0.1804 -0.4750
  270DMF     O1 3722   1.037   2.153   2.624 -0.4554 -0.4727 -0.1035
  270DMF     H1 3723   0.998   1.871   2.511  0.6060  0.8537 -0.2435
  270DMF     H2 3724   0.860   1.988   2.526  0.2535 -0.6180 -1.3621
  270DMF     H3 3725   0.845   1.821   2.587 -1.1448  0.9354 -1.4967
  270DMF     H4 3726   1.085   1.792   2.803  0.0087 -0.8405  1.7090
  270DMF     H5 3727   0.910   1.774   2.805 -0.0317 -0.3416  0.4956
  270DMF     H6 3728   0.992   1.893   2.914 -0.5926 -0.1749  0.2244
  270DMF     H7 3729   1.048   2.105   2.823  2.3550 -1.9438 -0.3697
  271DMF     C1 3730   0.899   1.186   3.157 -0.3597 -0.3517  0.3770
  271DMF     N1 3731   0.875   1.044   3.149  0.5734 -0.2110  0.1190
  271DMF     C2 3732   0.791   0.995   3.046  0.1457 -0.7650 -0.7057
  271DMF     C3 3733   0.931   0.953   3.240  0.0283 -0.2977  0.0721
  271DMF     O1 3734   1.007   0.991   3.330 -0.1351  0.2224  0.7201
  271DMF     H1 3735   0.808   1.237   3.190  1.7463  2.4312  2.0529
  271DMF     H2 3736   0.915   1.227   3.057 -0.7217  1.6134  1.1041
  271DMF     H3 3737   0.981   1.206   3.227 -0.7351  1.2263  0.3831
  271DMF     H4 3738   0.730   1.074   3.000 -1.4607 -1.2564  0.5492
  271DMF     H5 3739   0.726   0.911   3.074  0.3268 -0.6502  0.0525
  271DMF     H6 3740   0.854   0.952   2.966  0.4053  0.9840 -1.4605
  271DMF     H7 3741   0.909   0.845   3.230 -0.7738 -0.0967 -0.4173
  272DMF     C1 3742   3.221   2.767   2.230  0.3077  0.0706 -0.9152
  272DMF     N1 3743   3.324   2.874   2.252 -0.0484  0.2846  0.4721
  272DMF     C2 3744   3.280   3.015   2.269 -0.0238  0.7659 -0.6305
  272DMF     C3 3745   3.464   2.850   2.239  0.1019  0.4626  0.2591
  272DMF     O1 3746   3.502   2.734   2.242  0.4395  0.7054  0.3521
  272DMF     H1 3747   3.191   2.714   2.321 -1.8196  1.6135 -0.6794
  272DMF     H2 3748   3.264   2.687   2.169  1.6069 -1.4447  1.8916
  272DMF     H3 3749   3.147   2.819   2.167  1.3949  1.1574 -1.3175
  272DMF     H4 3750   3.300   3.069   2.176  1.6843  1.3488  0.0457
  272DMF     H5 3751   3.337   3.070   2.345 -0.5272 -0.0600  0.3469
  272DMF     H6 3752   3.172   3.008   2.285  0.0385 -0.8211 -0.7978
  272DMF     H7 3753   3.523   2.943   2.239 -2.0232  1.8801  2.6898
  273DMF     C1 3754   0.798   1.501   3.058  0.9161 -0.2828 -0.3664
  273DMF     N1 3755   0.731   1.588   3.159 -0.0559  0.1754 -0.5640
  273DMF     C2 3756   0.744   1.736   3.154 -0.5800 -0.2666 -0.1333
  273DMF     C3 3757   0.626   1.530   3.236  0.1370  0.3634  0.1901
  273DMF     O1 3758   0.602   1.409   3.235  0.0772  1.0400  0.2058
  273DMF     H1 3759   0.796   1.557   2.964 -1.7797  0.0573 -0.1611
  273DMF     H2 3760   0.752   1.403   3.043 -0.8335 -0.0047  2.6408
  273DMF     H3 3761   0.898   1.478   3.097  0.8665 -0.5412 -0.3938
  273DMF     H4 3762   0.695   1.781   3.242  1.1269  0.3082  0.5448
  273DMF     H5 3763   0.709   1.785   3.063 -1.6828  0.2223  0.5456
  273DMF     H6 3764   0.848   1.772   3.164 -0.2026 -0.9036 -1.6380
  273DMF     H7 3765   0.575   1.608   3.295  1.4470  1.1942  0.2432
  274DMF     C1 3766   1.008   2.896   2.272  0.0152 -0.0964 -0.0159
  274DMF     N1 3767   1.132   2.811   2.243 -0.0448 -0.3875  0.3870
  274DMF     C2 3768   1.268   2.875   2.247  0.2278 -0.2418 -0.1175
  274DMF     C3 3769   1.126   2.669   2.229 -0.1345  0.2509 -0.4619
  274DMF     O1 3770   1.016   2.605   2.229 -0.3047  0.3513 -0.1033
  274DMF     H1 3771   0.993   2.890   2.381  1.9113  2.8301  0.4672
  274DMF     H2 3772   0.931   2.844   2.214  1.1247  0.7754 -2.3172
  274DMF     H3 3773   1.010   2.999   2.236 -2.2262  0.3425  0.9877
  274DMF     H4 3774   1.318   2.833   2.159 -0.4578 -0.2148 -0.5310
  274DMF     H5 3775   1.325   2.873   2.341  0.2645  1.9884 -0.0740
  274DMF     H6 3776   1.260   2.983   2.232  1.8381 -0.0005  0.6646
  274DMF     H7 3777   1.226   2.621   2.229 -0.8485 -1.2541  1.0281
  275DMF     C1 3778   2.542   2.292   2.617  0.1675 -0.6162 -0.2059
  275DMF     N1 3779   2.410   2.233   2.653  0.1306 -0.4355 -1.0529
  275DMF     C2 3780   2.290   2.264   2.574 -0.1782  0.2532 -0.2190
  275DMF     C3 3781   2.404   2.134   2.755 -0.1630 -0.1414 -0.6859
  275DMF     O1 3782   2.501   2.109   2.828 -0.1436  0.6606 -0.7377
  275DMF     H1 3783   2.596   2.327   2.706 -1.8156  1.9711  0.0275
  275DMF     H2 3784   2.539   2.383   2.557 -0.0143 -1.0509 -0.8585
  275DMF     H3 3785   2.604   2.222   2.560 -1.1667 -1.3280 -0.8080
  275DMF     H4 3786   2.293   2.200   2.485 -3.2454  1.1437 -1.0193
  275DMF     H5 3787   2.304   2.367   2.536 -0.2743  0.8992  1.4716
  275DMF     H6 3788   2.201   2.244   2.635  1.4818 -2.0150  1.5481
  275DMF     H7 3789   2.304   2.088   2.765 -0.5599  0.8552 -0.0069
  276DMF     C1 3790   0.127   2.688   3.508 -0.5334  0.5473  0.4999
  276DMF     N1 3791   0.075   2.709   3.643  0.6077 -0.3280  0.4944
  276DMF     C2 3792   0.175   2.728   3.752  0.5521 -0.0622 -0.2537
  276DMF     C3 3793  -0.060   2.709   3.672 -0.0975 -0.0092 -0.0769
  276DMF     O1 3794  -0.150   2.706   3.588  0.2338 -0.1238 -0.4948
  276DMF     H1 3795   0.220   2.744   3.488 -1.6487  1.6304 -1.8453
  276DMF     H2 3796   0.053   2.703   3.429 -1.1719  0.3325  1.0574
  276DMF     H3 3797   0.147   2.580   3.504 -0.0540  0.4960  3.3679
  276DMF     H4 3798   0.267   2.686   3.710  1.3562 -0.6313  1.9832
  276DMF     H5 3799   0.152   2.660   3.835  0.3447  0.3477  0.0267
  276DMF     H6 3800   0.181   2.832   3.788  0.9951 -0.0949 -0.2217
  276DMF     H7 3801  -0.089   2.711   3.778  0.3804  1.3248  0.0248
  277DMF     C1 3802   2.381   3.123   2.562 -0.3970  0.8301 -0.3532
  277DMF     N1 3803   2.520   3.111   2.610  0.0861 -0.0583  0.0043
  277DMF     C2 3804   2.551   3.193   2.722 -0.1209  0.1026 -0.1900
  277DMF     C3 3805   2.614   3.025   2.546  0.3155  0.4072 -0.0825
  277DMF     O1 3806   2.580   2.959   2.450 -0.3060 -0.5992  0.0373
  277DMF     H1 3807   2.385   3.105   2.454  1.4905 -1.9157  0.1240
  277DMF     H2 3808   2.345   3.226   2.573  2.1821  1.6894  0.4440
  277DMF     H3 3809   2.311   3.056   2.614 -1.6249  1.8298 -0.6856
  277DMF     H4 3810   2.465   3.252   2.756 -0.4410 -0.7874  0.5244
  277DMF     H5 3811   2.637   3.258   2.704 -1.1659  1.7844  0.7122
  277DMF     H6 3812   2.583   3.125   2.801 -0.5023 -0.2554 -0.3412
  277DMF     H7 3813   2.714   3.015   2.592  0.8370 -0.4492 -1.3704
  278DMF     C1 3814   0.925   2.382   0.071  0.6411  1.0306  0.8529
  278DMF     N1 3815   0.871   2.334  -0.060 -0.3880 -0.2290 -0.6351
  278DMF     C2 3816   0.839   2.441  -0.156 -0.0413 -0.4683 -0.6170
  278DMF     C3 3817   0.872   2.201  -0.088 -0.5673  0.2797 -0.1724
  278DMF     O1 3818   0.912   2.115  -0.008  0.1356  0.0869 -0.7670
  278DMF     H1 3819   1.035   2.390   0.073  0.8114 -0.3982 -1.0866
  278DMF     H2 3820   0.892   2.308   0.145 -1.8322  1.1286 -0.1108
  278DMF     H3 3821   0.882   2.481   0.087 -1.6410  0.8208 -3.2947
  278DMF     H4 3822   0.854   2.408  -0.259 -0.6073 -0.0549 -0.8351
  278DMF     H5 3823   0.906   2.526  -0.137 -1.1615  0.1135  0.8868
  278DMF     H6 3824   0.733   2.467  -0.144  0.3093  0.3956  0.7019
  278DMF     H7 3825   0.837   2.171  -0.188 -1.1322 -1.2568  0.4775
  279DMF     C1 3826   1.923   1.975   2.797  0.0269 -0.0432  0.0168
  279DMF     N1 3827   1.946   1.901   2.673  0.3827  0.3413 -0.5148
  279DMF     C2 3828   1.862   1.783   2.642 -0.2702  0.4029 -0.9479
  279DMF     C3 3829   2.053   1.933   2.582  0.4006  0.1125 -0.1145
  279DMF     O1 3830   2.122   2.033   2.597  0.4337  0.2114  0.3928
  279DMF     H1 3831   1.954   1.930   2.892 -0.6472 -1.0780 -0.2481
  279DMF     H2 3832   1.823   2.019   2.796  0.0407 -0.0106 -0.9983
  279DMF     H3 3833   1.972   2.072   2.782 -1.3748  0.9462  1.6965
  279DMF     H4 3834   1.788   1.791   2.722  0.8185 -2.1312  0.3672
  279DMF     H5 3835   1.929   1.696   2.650  1.0543  1.5566  0.9663
  279DMF     H6 3836   1.814   1.774   2.544 -0.8756 -2.7209 -0.4110
  279DMF     H7 3837   2.064   1.847   2.513  0.3867 -1.7806  2.1805
  280DMF     C1 3838   1.201   2.632   2.923 -0.2647  0.1641 -0.7345
  280DMF     N1 3839   1.166   2.494   2.877 -0.5603 -0.3718  0.1292
  280DMF     C2 3840   1.156   2.472   2.729 -0.2158 -0.4086 -0.0612
  280DMF     C3 3841   1.130   2.392   2.962 -0.2318 -0.7014 -0.2323
  280DMF     O1 3842   1.121   2.396   3.084 -0.4029 -0.0864  0.1390
  280DMF     H1 3843   1.125   2.659   2.997 -0.0324 -1.2398  0.0395
  280DMF     H2 3844   1.216   2.699   2.837  0.5706  0.3985 -0.4161
  280DMF     H3 3845   1.299   2.624   2.972  0.2465 -0.4661 -1.8320
  280DMF     H4 3846   1.067   2.518   2.684  0.3960  0.0334 -0.8146
  280DMF     H5 3847   1.159   2.364   2.709 -1.0431 -0.6871  1.2365
  280DMF     H6 3848   1.238   2.520   2.676 -0.9193  0.5397 -0.3037
  280DMF     H7 3849   1.114   2.295   2.912 -0.6568 -0.5637 -0.3549
  281DMF     C1 3850   1.179   0.027   2.898 -0.1175 -0.0967  0.8053
  281DMF     N1 3851   1.056   0.072   2.961  0.0691  0.0738  0.8683
  281DMF     C2 3852   1.073   0.102   3.103  0.6492  0.5783 -0.2164
  281DMF     C3 3853   0.931   0.060   2.894 -0.5638 -0.2169 -0.0011
  281DMF     O1 3854   0.919   0.033   2.775  0.0819 -0.4282  0.5899
  281DMF     H1 3855   1.235  -0.040   2.963  0.6928  0.6739  0.9129
  281DMF     H2 3856   1.239   0.117   2.876  1.1087 -1.2497 -0.6482
  281DMF     H3 3857   1.162  -0.016   2.799  0.2937  0.2077  0.6003
  281DMF     H4 3858   0.991   0.160   3.149 -0.9026 -1.1101 -0.7789
  281DMF     H5 3859   1.164   0.159   3.127 -0.2215  0.3343  3.9771
  281DMF     H6 3860   1.076   0.007   3.158  1.7711  0.4373 -0.5193
  281DMF     H7 3861   0.846   0.085   2.961 -1.2388 -0.2656 -0.8249
  282DMF     C1 3862   2.248   1.546   2.581 -0.0915  0.3218 -0.2319
  282DMF     N1 3863   2.256   1.478   2.705 -0.2520  0.1293  0.3001
  282DMF     C2 3864   2.242   1.552   2.832 -0.2629 -0.4566 -0.2038
  282DMF     C3 3865   2.315   1.354   2.716 -0.1893  0.5721 -0.4202
  282DMF     O1 3866   2.337   1.286   2.620  0.1503 -0.6385 -0.6917
  282DMF     H1 3867   2.265   1.654   2.594 -0.9972  0.4185  0.1894
  282DMF     H2 3868   2.149   1.532   2.537  0.1004 -1.9525 -0.0139
  282DMF     H3 3869   2.323   1.510   2.509  3.5040  1.3799  2.8380
  282DMF     H4 3870   2.144   1.544   2.880 -1.0866  2.2717 -1.3690
  282DMF     H5 3871   2.269   1.658   2.821 -2.2395  0.2061  1.1174
  282DMF     H6 3872   2.320   1.511   2.898 -0.8935 -0.7825  0.3504
  282DMF     H7 3873   2.327   1.331   2.824 -0.0463  1.5501 -0.2244
  283DMF     C1 3874   1.475   3.214   2.247  0.3695  0.3546 -0.2456
  283DMF     N1 3875   1.465   3.363   2.242  0.1881  0.4133  0.0963
  283DMF     C2 3876   1.584   3.441   2.241 -0.0793  0.0300 -0.2272
  283DMF     C3 3877   1.343   3.430   2.224  0.3018 -0.5007 -1.0322
  283DMF     O1 3878   1.240   3.362   2.210  0.1920 -0.0734 -0.0221
  283DMF     H1 3879   1.434   3.179   2.342  0.0676  1.7414  0.1469
  283DMF     H2 3880   1.580   3.180   2.249  0.3416  0.2015 -1.2855
  283DMF     H3 3881   1.408   3.154   2.185 -0.1039  1.5315 -0.8879
  283DMF     H4 3882   1.667   3.375   2.269 -0.3714  0.6862  2.3262
  283DMF     H5 3883   1.567   3.512   2.323 -1.1417 -1.1336  0.5999
  283DMF     H6 3884   1.602   3.488   2.144 -2.8453  1.2202 -0.1998
  283DMF     H7 3885   1.349   3.540   2.230  0.2769 -0.5522 -0.0710
  284DMF     C1 3886   0.156   2.202   0.055  0.2860 -0.2697 -0.0641
  284DMF     N1 3887   0.108   2.264  -0.070  0.0524  0.2383  0.1975
  284DMF     C2 3888   0.046   2.392  -0.064  0.1318  0.0387 -0.3639
  284DMF     C3 3889   0.128   2.207  -0.195 -0.1577 -0.3306  0.1297
  284DMF     O1 3890   0.158   2.089  -0.212 -0.0056 -0.1539  0.1171
  284DMF     H1 3891   0.083   2.137   0.103 -0.0062  1.2346  1.5938
  284DMF     H2 3892   0.173   2.281   0.129 -0.1965  0.7531 -1.0349
  284DMF     H3 3893   0.249   2.147   0.036  0.9414 -0.2868  3.0237
  284DMF     H4 3894   0.119   2.472  -0.045 -1.1241  1.0814  0.1203
  284DMF     H5 3895  -0.040   2.392   0.004  1.6982  0.2702  1.6597
  284DMF     H6 3896   0.006   2.413  -0.164 -0.2452  1.2666  0.0407
  284DMF     H7 3897   0.097   2.273  -0.278 -0.5018  0.2275  0.6944
  285DMF     C1 3898   0.988   1.631   2.277  0.0486  1.3255  0.8599
  285DMF     N1 3899   0.850   1.688   2.268  0.2349  0.1749  0.2078
  285DMF     C2 3900   0.737   1.588   2.261 -1.0729 -0.0384  0.0430
  285DMF     C3 3901   0.829   1.820   2.226  0.2552  0.0562  0.2275
  285DMF     O1 3902   0.916   1.907   2.226  0.4900 -0.0464 -0.8442
  285DMF     H1 3903   1.042   1.676   2.361  0.1084 -0.5882  1.8849
  285DMF     H2 3904   1.040   1.645   2.181 -1.8183  0.7897 -0.2492
  285DMF     H3 3905   0.981   1.522   2.289  2.7087  0.8315 -1.6090
  285DMF     H4 3906   0.656   1.624   2.196  0.7831  0.4364 -2.0737
  285DMF     H5 3907   0.695   1.565   2.359  0.0543 -0.3802  0.4602
  285DMF     H6 3908   0.768   1.495   2.212  2.3473  1.5869 -1.1025
  285DMF     H7 3909   0.722   1.838   2.206  0.0939  0.0266  1.0489
  286DMF     C1 3910   0.293   1.202   3.158  0.7943  0.3837 -0.6877
  286DMF     N1 3911   0.150   1.217   3.168 -0.3281  0.0186  0.0982
  286DMF     C2 3912   0.107   1.325   3.261  0.8423 -0.5988  0.7547
  286DMF     C3 3913   0.060   1.132   3.106  0.6374 -0.0323  0.1901
  286DMF     O1 3914   0.090   1.034   3.042 -0.1173  0.1175  0.0169
  286DMF     H1 3915   0.318   1.230   3.055 -0.6323  0.3238 -1.0535
  286DMF     H2 3916   0.318   1.097   3.175  0.2925  0.1925 -1.1105
  286DMF     H3 3917   0.350   1.259   3.233  0.1951  1.1995 -0.8441
  286DMF     H4 3918   0.057   1.403   3.203  2.5428  0.0160  0.0890
  286DMF     H5 3919   0.191   1.374   3.313  2.7805 -1.3403 -1.5768
  286DMF     H6 3920   0.046   1.294   3.347 -0.6162  0.1359 -0.0137
  286DMF     H7 3921  -0.048   1.153   3.123 -0.3160 -3.7930 -0.8061
  287DMF     C1 3922   3.354   3.273   3.691  0.9035 -0.3184  0.6273
  287DMF     N1 3923   3.233   3.229   3.616 -0.2463 -0.5160 -1.1808
  287DMF     C2 3924   3.155   3.115   3.670 -1.1264 -0.7480  0.1247
  287DMF     C3 3925   3.187   3.302   3.507 -0.5023 -0.5439 -0.4274
  287DMF     O1 3926   3.257   3.385   3.445  0.6962 -1.4906  0.1761
  287DMF     H1 3927   3.424   3.192   3.716 -0.8885 -1.7026  1.3611
  287DMF     H2 3928   3.299   3.300   3.782  1.0765 -0.7388  0.8624
  287DMF     H3 3929   3.415   3.351   3.645 -0.7884 -0.1913 -1.4826
  287DMF     H4 3930   3.057   3.108   3.620 -1.7409  1.5671  0.9447
  287DMF     H5 3931   3.132   3.142   3.773  2.4711  1.4959  0.4501
  287DMF     H6 3932   3.215   3.024   3.659  1.5314  0.9318  0.2370
  287DMF     H7 3933   3.094   3.260   3.466 -0.1710 -2.8747  1.1090
  288DMF     C1 3934   2.795   2.588   2.473  0.3718  0.7035 -0.4509
  288DMF     N1 3935   2.867   2.478   2.410  0.1227 -0.0421 -0.7857
  288DMF     C2 3936   2.907   2.495   2.272  0.4849 -0.8146 -0.4421
  288DMF     C3 3937   2.900   2.366   2.479  0.1866 -0.1736  0.4165
  288DMF     O1 3938   2.855   2.346   2.593  0.8229 -0.2407 -0.0249
  288DMF     H1 3939   2.865   2.646   2.533 -0.6158  1.0438  0.3960
  288DMF     H2 3940   2.711   2.554   2.535  1.5917  1.2421  1.5024
  288DMF     H3 3941   2.757   2.647   2.388 -2.3964  0.8989  0.8748
  288DMF     H4 3942   2.966   2.405   2.254 -0.7712 -2.2959  2.5708
  288DMF     H5 3943   2.976   2.581   2.273  0.2267 -0.5658  3.5208
  288DMF     H6 3944   2.821   2.500   2.205 -1.4469 -2.7599  1.8114
  288DMF     H7 3945   2.976   2.300   2.433 -0.0835 -0.2797  0.1276
  289DMF     C1 3946   1.507   1.703   3.366 -0.3402 -0.3858 -0.3136
  289DMF     N1 3947   1.472   1.627   3.488 -1.4072 -0.5584 -0.2230
  289DMF     C2 3948   1.440   1.700   3.611  0.4716 -0.1442  0.1137
  289DMF     C3 3949   1.445   1.486   3.476  0.3689 -0.1822 -0.2407
  289DMF     O1 3950   1.442   1.428   3.362  0.1704 -0.4649 -0.2909
  289DMF     H1 3951   1.573   1.655   3.293  0.0238 -0.0796 -0.1839
  289DMF     H2 3952   1.565   1.792   3.395 -0.4532 -0.0499 -1.1062
  289DMF     H3 3953   1.414   1.741   3.322 -0.5740 -0.7672 -0.1598
  289DMF     H4 3954   1.339   1.678   3.650  0.5175 -1.9537 -0.7062
  289DMF     H5 3955   1.440   1.807   3.589  0.4341  0.1300  1.4239
  289DMF     H6 3956   1.512   1.673   3.689 -0.9440 -0.2825  1.3909
  289DMF     H7 3957   1.416   1.442   3.573  0.3547 -0.5844 -0.4245
  290DMF     C1 3958   2.814   3.313   3.473 -0.8469 -0.2478  0.0684
  290DMF     N1 3959   2.745   3.180   3.490  0.5525 -0.0608 -0.5136
  290DMF     C2 3960   2.675   3.164   3.622 -0.4697  0.0869  0.3056
  290DMF     C3 3961   2.734   3.091   3.384  0.1431  0.0175 -0.0220
  290DMF     O1 3962   2.808   3.094   3.289 -0.4187 -0.3765 -0.4009
  290DMF     H1 3963   2.734   3.380   3.506  0.2951  1.4228 -0.4867
  290DMF     H2 3964   2.841   3.335   3.369  3.1133  2.8733  1.6039
  290DMF     H3 3965   2.904   3.321   3.536  1.3364  0.2990 -3.0274
  290DMF     H4 3966   2.717   3.225   3.703  1.2245 -1.2750  0.5063
  290DMF     H5 3967   2.675   3.057   3.647  0.5984  0.2773  1.2020
  290DMF     H6 3968   2.572   3.199   3.613 -0.3657  0.3427  0.1239
  290DMF     H7 3969   2.658   3.012   3.398  1.9608 -1.4556  1.6892
  291DMF     C1 3970   2.353   0.296   2.604 -0.1087 -0.4122  0.2482
  291DMF     N1 3971   2.305   0.179   2.695  0.2205  0.0596 -0.6032
  291DMF     C2 3972   2.164   0.168   2.742 -0.1003  0.8172 -0.1451
  291DMF     C3 3973   2.403   0.089   2.751 -0.1031  0.1773  0.2966
  291DMF     O1 3974   2.522   0.085   2.719  0.1060  0.3762  0.5503
  291DMF     H1 3975   2.300   0.391   2.611  2.4572  1.2000 -1.2766
  291DMF     H2 3976   2.337   0.260   2.501 -2.3611 -0.3016  0.5434
  291DMF     H3 3977   2.456   0.329   2.624  0.0707 -0.1704 -1.0302
  291DMF     H4 3978   2.092   0.196   2.663 -1.5558 -1.4668  0.3199
  291DMF     H5 3979   2.152   0.236   2.826 -0.9780  0.1680  0.2591
  291DMF     H6 3980   2.132   0.066   2.765  2.3550 -0.4037 -1.8674
  291DMF     H7 3981   2.358   0.022   2.826  1.3061 -1.7713 -0.5494
  292DMF     C1 3982   1.505   0.904   0.038  1.0415 -0.3582  0.2025
  292DMF     N1 3983   1.363   0.890   0.092  0.0478 -0.3792 -0.1977
  292DMF     C2 3984   1.334   0.964   0.219 -0.6078  0.2553 -0.3404
  292DMF     C3 3985   1.262   0.847   0.013 -0.8254  0.7081  0.1711
  292DMF     O1 3986   1.292   0.798  -0.095 -0.0338 -0.3658 -0.0749
  292DMF     H1 3987   1.544   0.804   0.016 -1.5644 -1.4532  0.2960
  292DMF     H2 3988   1.577   0.960   0.098 -0.8667  2.6447 -0.1880
  292DMF     H3 3989   1.508   0.963  -0.054  0.2823  0.3835  0.6399
  292DMF     H4 3990   1.391   1.056   0.233  0.1379 -0.5318  1.8808
  292DMF     H5 3991   1.365   0.905   0.306  1.5137  0.3122 -1.0345
  292DMF     H6 3992   1.226   0.981   0.232 -0.5100  0.1947  0.5413
  292DMF     H7 3993   1.160   0.873   0.046 -0.8989  0.1060  0.4327
  293DMF     C1 3994   0.086   1.710   3.259  0.5006 -0.4558 -0.9250
  293DMF     N1 3995  -0.011   1.766   3.352  0.5370  0.2485  0.1153
  293DMF     C2 3996  -0.062   1.907   3.323 -1.2848  0.2894 -0.8483
  293DMF     C3 3997  -0.048   1.697   3.467 -0.6126  0.0679  0.7664
  293DMF     O1 3998   0.001   1.590   3.495 -0.2176  0.2571 -0.0758
  293DMF     H1 3999   0.127   1.613   3.291 -0.6529 -0.5575  0.2623
  293DMF     H2 4000   0.163   1.785   3.235  1.6036 -1.0617  0.6820
  293DMF     H3 4001   0.026   1.692   3.169 -0.9700 -0.1042 -0.0262
  293DMF     H4 4002  -0.161   1.916   3.370 -0.0539  3.5641  1.2450
  293DMF     H5 4003  -0.068   1.922   3.215  2.8927  2.7602 -0.8575
  293DMF     H6 4004   0.004   1.983   3.367 -0.1794 -1.0565 -0.1421
  293DMF     H7 4005  -0.121   1.754   3.528 -0.7535  0.3936  0.2984
  294DMF     C1 4006   2.934   0.890   0.258 -0.4819 -0.1191  0.5552
  294DMF     N1 4007   2.878   0.769   0.186 -0.0009 -0.5202  0.0282
  294DMF     C2 4008   2.981   0.671   0.158 -0.5608  0.2001  0.1389
  294DMF     C3 4009   2.756   0.773   0.115 -0.3702  0.2055 -0.7610
  294DMF     O1 4010   2.675   0.866   0.115  0.4574  0.7408  0.6461
  294DMF     H1 4011   3.017   0.866   0.325 -1.1744  1.6458  2.0790
  294DMF     H2 4012   2.858   0.930   0.326  0.0192  0.8814  0.5303
  294DMF     H3 4013   2.965   0.971   0.192 -2.0589  1.1339  1.3321
  294DMF     H4 4014   2.998   0.656   0.051  0.0680  0.3905  0.2061
  294DMF     H5 4015   2.957   0.573   0.201  0.5696 -0.7258 -1.2662
  294DMF     H6 4016   3.076   0.699   0.206 -1.3203 -1.8398  2.9556
  294DMF     H7 4017   2.740   0.678   0.060  2.2452 -0.3551 -0.6213
  295DMF     C1 4018   2.763   1.244   2.703  0.1016 -0.1278 -0.8575
  295DMF     N1 4019   2.829   1.252   2.836  0.6167 -0.0755 -0.1905
  295DMF     C2 4020   2.909   1.376   2.873  0.2250  0.0526 -0.3225
  295DMF     C3 4021   2.817   1.151   2.931  0.5569  0.3038 -0.5870
  295DMF     O1 4022   2.749   1.051   2.922 -0.2626 -0.6738 -0.3552
  295DMF     H1 4023   2.732   1.142   2.680  0.2721  0.0741 -2.0271
  295DMF     H2 4024   2.829   1.278   2.622 -0.4172 -0.7881 -1.5660
  295DMF     H3 4025   2.673   1.306   2.715  0.7659  0.5809  0.6470
  295DMF     H4 4026   2.976   1.347   2.954 -0.9014 -3.0753 -0.4375
  295DMF     H5 4027   2.841   1.456   2.906 -0.5616 -1.2509  1.2946
  295DMF     H6 4028   2.969   1.406   2.786 -0.3938  1.4042 -0.3072
  295DMF     H7 4029   2.875   1.175   3.023  0.0548  2.5057 -0.8349
  296DMF     C1 4030   1.978   2.094   3.142 -0.3262  0.4088  0.1333
  296DMF     N1 4031   2.029   1.950   3.131  0.4106  0.1566 -0.4193
  296DMF     C2 4032   2.176   1.939   3.099  0.1002  0.0836 -0.2072
  296DMF     C3 4033   1.956   1.850   3.200 -0.1245  0.2363 -1.1161
  296DMF     O1 4034   1.838   1.863   3.232 -0.0876  0.4584  0.0588
  296DMF     H1 4035   1.938   2.121   3.043  0.3358  0.7123 -0.0527
  296DMF     H2 4036   2.062   2.164   3.149  0.2714  0.1201 -3.2519
  296DMF     H3 4037   1.918   2.104   3.233 -1.3652  0.0938 -0.4976
  296DMF     H4 4038   2.192   1.985   3.001  0.8118  0.1581 -0.0599
  296DMF     H5 4039   2.212   1.835   3.101 -2.1851 -0.7763 -2.1357
  296DMF     H6 4040   2.218   2.003   3.178 -0.5161 -0.5978  0.6815
  296DMF     H7 4041   2.010   1.756   3.219 -0.1029  0.7133  1.3865
  297DMF     C1 4042   0.704   2.910   2.479 -0.4342 -0.6480  0.0836
  297DMF     N1 4043   0.720   2.781   2.407 -0.5604  0.1832 -0.3861
  297DMF     C2 4044   0.640   2.771   2.279 -1.0074 -0.4314 -0.2024
  297DMF     C3 4045   0.799   2.682   2.460  0.3292 -0.1167 -0.3101
  297DMF     O1 4046   0.857   2.709   2.557 -0.3531 -0.1483  0.4180
  297DMF     H1 4047   0.660   2.900   2.579 -1.0415  0.2195 -0.0945
  297DMF     H2 4048   0.649   2.986   2.423  1.5839  0.8984  0.1393
  297DMF     H3 4049   0.805   2.951   2.492 -0.2211 -0.4021 -2.1385
  297DMF     H4 4050   0.578   2.862   2.280  1.4914  1.3584 -0.6581
  297DMF     H5 4051   0.589   2.674   2.272 -0.8711 -0.3581 -3.2019
  297DMF     H6 4052   0.713   2.779   2.197  0.1131  0.5974  0.8696
  297DMF     H7 4053   0.821   2.599   2.390 -1.5641 -0.7870 -0.1326
  298DMF     C1 4054   2.878   3.041   2.300 -0.6987 -0.2617  0.4271
  298DMF     N1 4055   2.828   3.162   2.231  0.5388  0.4635 -0.5618
  298DMF     C2 4056   2.685   3.188   2.221 -0.4283  0.0166 -0.5956
  298DMF     C3 4057   2.912   3.269   2.220  1.5162 -0.5566  0.5852
  298DMF     O1 4058   3.030   3.254   2.247 -0.1915 -0.5753 -0.0647
  298DMF     H1 4059   2.822   2.946   2.300  1.0234 -1.3179 -0.4286
  298DMF     H2 4060   2.902   3.074   2.402 -1.4801  0.1455  0.4823
  298DMF     H3 4061   2.972   3.010   2.252 -0.1107  0.3856  1.1428
  298DMF     H4 4062   2.629   3.102   2.183  2.3636 -1.5845 -1.2437
  298DMF     H5 4063   2.668   3.278   2.161  0.4278  0.3738 -0.3022
  298DMF     H6 4064   2.661   3.196   2.328  0.4212 -0.3691 -0.3724
  298DMF     H7 4065   2.864   3.363   2.188  2.2978  0.1254  1.4187
  299DMF     C1 4066   2.675   2.705   3.391  0.0097 -0.2971  0.1771
  299DMF     N1 4067   2.654   2.748   3.242  0.0477 -0.2155 -0.1914
  299DMF     C2 4068   2.526   2.808   3.206 -0.1003 -0.4981  0.3867
  299DMF     C3 4069   2.755   2.734   3.153 -0.2745  0.3339  0.2878
  299DMF     O1 4070   2.861   2.674   3.179 -0.8615 -0.0864  0.1706
  299DMF     H1 4071   2.722   2.786   3.449  0.8454 -0.1895 -0.6258
  299DMF     H2 4072   2.738   2.616   3.395 -0.7312 -0.8124  0.3120
  299DMF     H3 4073   2.575   2.680   3.428  0.2075 -0.6684  0.4544
  299DMF     H4 4074   2.527   2.917   3.208 -0.6993 -0.4865  0.2295
  299DMF     H5 4075   2.442   2.766   3.264 -1.1046  1.0196  0.0560
  299DMF     H6 4076   2.500   2.778   3.103  0.6888 -0.5684  0.2030
  299DMF     H7 4077   2.732   2.777   3.054  1.0302  1.0030  0.2590
  300DMF     C1 4078   0.454   1.354   2.331  0.2584  0.3710  0.5473
  300DMF     N1 4079   0.461   1.215   2.382  0.1022 -0.3484  0.2649
  300DMF     C2 4080   0.398   1.193   2.514 -0.1353 -0.1312 -0.2692
  300DMF     C3 4081   0.542   1.114   2.325 -0.3633  0.2353 -0.1157
  300DMF     O1 4082   0.601   1.132   2.216 -0.7847  0.6640 -0.1808
  300DMF     H1 4083   0.397   1.409   2.406 -1.2000 -0.3835  0.0101
  300DMF     H2 4084   0.408   1.353   2.231 -0.4240  1.8497  0.8413
  300DMF     H3 4085   0.557   1.393   2.329  0.7491 -0.8806  0.6715
  300DMF     H4 4086   0.416   1.277   2.582  1.0391 -1.0166  0.5169
  300DMF     H5 4087   0.399   1.094   2.560 -1.4538  0.7585  1.7063
  300DMF     H6 4088   0.288   1.193   2.505  0.0227 -1.7914 -2.6644
  300DMF     H7 4089   0.545   1.025   2.391  0.5050  1.3531  1.3637
  301DMF     C1 4090   2.301   2.783   0.126  0.5217 -0.1297  0.7611
  301DMF     N1 4091   2.326   2.869   0.005  0.2121 -0.7211 -0.1437
  301DMF     C2 4092   2.227   2.976  -0.022  1.2965 -0.7503  0.5547
  301DMF     C3 4093   2.449   2.865  -0.069 -0.9077  0.5106  0.4874
  301DMF     O1 4094   2.531   2.778  -0.059  0.2655  0.5994 -1.1128
  301DMF     H1 4095   2.352   2.825   0.213 -0.6668  0.3473  1.2458
  301DMF     H2 4096   2.354   2.690   0.104 -1.2738 -1.4054  1.7237
  301DMF     H3 4097   2.192   2.775   0.133  0.3681 -0.6357 -1.5907
  301DMF     H4 4098   2.145   2.943   0.043  2.1826 -1.7237  1.2000
  301DMF     H5 4099   2.206   2.990  -0.129  0.5247 -1.6845  0.5746
  301DMF     H6 4100   2.243   3.074   0.024  0.3250 -0.3407  0.0380
  301DMF     H7 4101   2.449   2.948  -0.143  0.5888 -1.8765 -2.2577
  302DMF     C1 4102   2.185   0.092   2.312 -0.2386  0.0660  0.0999
  302DMF     N1 4103   2.100  -0.032   2.282 -0.4266  0.0542  0.3003
  302DMF     C2 4104   2.161  -0.160   2.275 -0.3601  0.0660  0.7440
  302DMF     C3 4105   1.965  -0.016   2.248  0.2872 -0.0636  0.1695
  302DMF     O1 4106   1.910   0.093   2.255 -0.2861 -0.1673 -0.2174
  302DMF     H1 4107   2.192   0.156   2.223  0.8549  1.2821  1.0234
  302DMF     H2 4108   2.280   0.056   2.354  0.3697 -0.9900 -2.1336
  302DMF     H3 4109   2.138   0.155   2.389  0.9107  0.6106  0.3669
  302DMF     H4 4110   2.144  -0.201   2.375 -0.8148 -0.0768  0.6059
  302DMF     H5 4111   2.270  -0.155   2.260 -0.8176 -0.9520 -3.4759
  302DMF     H6 4112   2.117  -0.229   2.202  1.3612 -0.2573 -0.0146
  302DMF     H7 4113   1.923  -0.106   2.199 -0.2865  0.6298 -0.6397
  303DMF     C1 4114   2.947   2.232   1.019 -0.3063  0.0809  0.0327
  303DMF     N1 4115   3.055   2.329   1.048 -0.0315  0.5807  0.2247
  303DMF     C2 4116   3.173   2.315   0.969 -0.6007 -0.1048 -0.2273
  303DMF     C3 4117   3.026   2.444   1.121 -0.7712  0.0753  0.2330
  303DMF     O1 4118   2.925   2.453   1.182 -0.2205 -0.4437 -0.4381
  303DMF     H1 4119   2.896   2.260   0.926  1.1174  1.4505 -0.3529
  303DMF     H2 4120   2.872   2.231   1.099  1.2667 -0.4269  1.5412
  303DMF     H3 4121   2.987   2.130   1.023  2.4198  1.1579  2.0195
  303DMF     H4 4122   3.172   2.382   0.882  1.3786  0.2380 -0.0183
  303DMF     H5 4123   3.176   2.211   0.933  1.1789 -0.9174  2.1005
  303DMF     H6 4124   3.257   2.335   1.036 -2.2834 -2.4516  2.7077
  303DMF     H7 4125   3.104   2.522   1.112  0.7982 -1.5971 -1.2654
  304DMF     C1 4126   0.979   1.959   3.379  0.4782 -0.1086 -0.5047
  304DMF     N1 4127   0.960   2.090   3.306 -0.2289  0.8765  0.6917
  304DMF     C2 4128   0.873   2.100   3.179  0.8246  0.5454  0.1608
  304DMF     C3 4129   1.013   2.208   3.359 -0.1412  0.0234  0.1958
  304DMF     O1 4130   1.069   2.208   3.467 -0.2573 -0.0757 -0.0384
  304DMF     H1 4131   1.087   1.943   3.374  0.6099  0.4567  0.4375
  304DMF     H2 4132   0.926   1.879   3.326  2.2000  0.2975 -2.9183
  304DMF     H3 4133   0.941   1.978   3.480  0.7381  1.8632 -0.7639
  304DMF     H4 4134   0.771   2.131   3.203  0.5103 -1.5696  1.7093
  304DMF     H5 4135   0.863   2.010   3.117 -0.5778  1.1979 -0.5830
  304DMF     H6 4136   0.921   2.181   3.123  0.0052  1.2316  0.4396
  304DMF     H7 4137   0.998   2.293   3.290  0.8309  0.0567  0.0222
  305DMF     C1 4138   2.826   0.162   2.398  0.6295 -0.7629 -0.4269
  305DMF     N1 4139   2.761   0.044   2.462  0.1830 -0.3311  0.0040
  305DMF     C2 4140   2.850  -0.028   2.554 -0.5691 -0.2419 -0.1117
  305DMF     C3 4141   2.626   0.017   2.444 -0.4794  0.5119 -0.4438
  305DMF     O1 4142   2.565   0.050   2.345 -0.3544  0.0999 -0.5639
  305DMF     H1 4143   2.935   0.155   2.396  0.7542  0.9127  0.1006
  305DMF     H2 4144   2.797   0.253   2.453 -1.1503 -1.0152 -0.9114
  305DMF     H3 4145   2.796   0.166   2.293  0.0769  2.1700 -0.2037
  305DMF     H4 4146   2.945   0.022   2.578  0.3328 -2.1385  0.4737
  305DMF     H5 4147   2.868  -0.132   2.524  0.9808  0.3121 -1.1492
  305DMF     H6 4148   2.797  -0.035   2.650 -0.8654  1.9303 -0.1086
  305DMF     H7 4149   2.592  -0.059   2.516  3.0837 -1.3901 -0.6669
  306DMF     C1 4150   2.784   0.495   2.250 -0.3633 -0.2363  0.2924
  306DMF     N1 4151   2.641   0.529   2.244  0.6304 -0.7872 -0.0288
  306DMF     C2 4152   2.542   0.421   2.258  0.0830 -0.8254 -0.0728
  306DMF     C3 4153   2.604   0.664   2.230  0.1104  0.3555  0.0058
  306DMF     O1 4154   2.679   0.764   2.235  0.4564 -0.3196 -0.2703
  306DMF     H1 4155   2.828   0.500   2.350  0.8962 -1.4908 -0.1922
  306DMF     H2 4156   2.837   0.561   2.180  1.1654 -0.4947  1.1730
  306DMF     H3 4157   2.803   0.393   2.217 -0.6084 -0.4734  0.8717
  306DMF     H4 4158   2.470   0.433   2.176  0.5154  1.4911 -0.1542
  306DMF     H5 4159   2.488   0.425   2.353  0.4173 -1.5846  0.1447
  306DMF     H6 4160   2.598   0.327   2.260 -0.8394 -1.3794  0.4634
  306DMF     H7 4161   2.495   0.672   2.213 -0.0743  0.3060  1.0946
  307DMF     C1 4162   1.534   2.335   2.787  0.4178 -0.1198  0.0005
  307DMF     N1 4163   1.525   2.267   2.661 -0.1798 -0.8110 -0.8261
  307DMF     C2 4164   1.393   2.241   2.596 -0.6429 -0.3971 -0.0041
  307DMF     C3 4165   1.641   2.229   2.597 -0.5856  0.2318  0.9759
  307DMF     O1 4166   1.748   2.240   2.652 -0.2550  0.4519  0.1228
  307DMF     H1 4167   1.590   2.274   2.859 -1.2746 -1.4349  0.2391
  307DMF     H2 4168   1.435   2.343   2.834  1.0096 -0.6505  1.3747
  307DMF     H3 4169   1.567   2.440   2.780 -1.7354  0.4965 -1.3486
  307DMF     H4 4170   1.308   2.234   2.666 -0.9301  0.8853 -0.2063
  307DMF     H5 4171   1.406   2.147   2.541  2.3365  0.5832 -1.0619
  307DMF     H6 4172   1.370   2.324   2.529  1.0416 -0.7155 -0.9985
  307DMF     H7 4173   1.626   2.183   2.497 -1.9310  0.8077  0.9044
   3.40320   3.43847   3.80000
