DMF comparator n4
 4173
    1GR      C1    1   0.000   0.000   1.900  0.0000  0.0000  0.0000
    1GR      C2    2   0.142   0.000   1.900  0.0000  0.0000  0.0000
    1GR      C3    3   0.213   0.123   1.900  0.0000  0.0000  0.0000
    1GR      C4    4   0.354   0.123   1.900  0.0000  0.0000  0.0000
    1GR      C5    5   0.000   0.246   1.900  0.0000  0.0000  0.0000
    1GR      C6    6   0.142   0.246   1.900  0.0000  0.0000  0.0000
    1GR      C7    7   0.213   0.368   1.900  0.0000  0.0000  0.0000
    1GR      C8    8   0.354   0.368   1.900  0.0000  0.0000  0.0000
    1GR      C9    9   0.000   0.491   1.900  0.0000  0.0000  0.0000
    1GR     C10   10   0.142   0.491   1.900  0.0000  0.0000  0.0000
    1GR     C11   11   0.213   0.614   1.900  0.0000  0.0000  0.0000
    1GR     C12   12   0.354   0.614   1.900  0.0000  0.0000  0.0000
    1GR     C13   13   0.000   0.737   1.900  0.0000  0.0000  0.0000
    1GR     C14   14   0.142   0.737   1.900  0.0000  0.0000  0.0000
    1GR     C15   15   0.213   0.860   1.900  0.0000  0.0000  0.0000
    1GR     C16   16   0.354   0.860   1.900  0.0000  0.0000  0.0000
    1GR     C17   17   0.000   0.982   1.900  0.0000  0.0000  0.0000
    1GR     C18   18   0.142   0.982   1.900  0.0000  0.0000  0.0000
    1GR     C19   19   0.213   1.105   1.900  0.0000  0.0000  0.0000
    1GR     C20   20   0.354   1.105   1.900  0.0000  0.0000  0.0000
    1GR     C21   21   0.000   1.228   1.900  0.0000  0.0000  0.0000
    1GR     C22   22   0.142   1.228   1.900  0.0000  0.0000  0.0000
    1GR     C23   23   0.213   1.351   1.900  0.0000  0.0000  0.0000
    1GR     C24   24   0.354   1.351   1.900  0.0000  0.0000  0.0000
    1GR     C25   25   0.000   1.474   1.900  0.0000  0.0000  0.0000
    1GR     C26   26   0.142   1.474   1.900  0.0000  0.0000  0.0000
    1GR     C27   27   0.213   1.596   1.900  0.0000  0.0000  0.0000
    1GR     C28   28   0.354   1.596   1.900  0.0000  0.0000  0.0000
    1GR     C29   29   0.000   1.719   1.900  0.0000  0.0000  0.0000
    1GR     C30   30   0.142   1.719   1.900  0.0000  0.0000  0.0000
    1GR     C31   31   0.213   1.842   1.900  0.0000  0.0000  0.0000
    1GR     C32   32   0.354   1.842   1.900  0.0000  0.0000  0.0000
    1GR     C33   33   0.000   1.965   1.900  0.0000  0.0000  0.0000
    1GR     C34   34   0.142   1.965   1.900  0.0000  0.0000  0.0000
    1GR     C35   35   0.213   2.088   1.900  0.0000  0.0000  0.0000
    1GR     C36   36   0.354   2.088   1.900  0.0000  0.0000  0.0000
    1GR     C37   37   0.000   2.210   1.900  0.0000  0.0000  0.0000
    1GR     C38   38   0.142   2.210   1.900  0.0000  0.0000  0.0000
    1GR     C39   39   0.213   2.333   1.900  0.0000  0.0000  0.0000
    1GR     C40   40   0.354   2.333   1.900  0.0000  0.0000  0.0000
    1GR     C41   41   0.000   2.456   1.900  0.0000  0.0000  0.0000
    1GR     C42   42   0.142   2.456   1.900  0.0000  0.0000  0.0000
    1GR     C43   43   0.213   2.579   1.900  0.0000  0.0000  0.0000
    1GR     C44   44   0.354   2.579   1.900  0.0000  0.0000  0.0000
    1GR     C45   45   0.000   2.702   1.900  0.0000  0.0000  0.0000
    1GR     C46   46   0.142   2.702   1.900  0.0000  0.0000  0.0000
    1GR     C47   47   0.213   2.824   1.900  0.0000  0.0000  0.0000
    1GR     C48   48   0.354   2.824   1.900  0.0000  0.0000  0.0000
    1GR     C49   49   0.000   2.947   1.900  0.0000  0.0000  0.0000
    1GR     C50   50   0.142   2.947   1.900  0.0000  0.0000  0.0000
    1GR     C51   51   0.213   3.070   1.900  0.0000  0.0000  0.0000
    1GR     C52   52   0.354   3.070   1.900  0.0000  0.0000  0.0000
    1GR     C53   53   0.000   3.193   1.900  0.0000  0.0000  0.0000
    1GR     C54   54   0.142   3.193   1.900  0.0000  0.0000  0.0000
    1GR     C55   55   0.213   3.316   1.900  0.0000  0.0000  0.0000
    1GR     C56   56   0.354   3.316   1.900  0.0000  0.0000  0.0000
    1GR     C57   57   0.425   0.000   1.900  0.0000  0.0000  0.0000
    1GR     C58   58   0.567   0.000   1.900  0.0000  0.0000  0.0000
    1GR     C59   59   0.638   0.123   1.900  0.0000  0.0000  0.0000
    1GR     C60   60   0.780   0.123   1.900  0.0000  0.0000  0.0000
    1GR     C61   61   0.425   0.246   1.900  0.0000  0.0000  0.0000
    1GR     C62   62   0.567   0.246   1.900  0.0000  0.0000  0.0000
    1GR     C63   63   0.638   0.368   1.900  0.0000  0.0000  0.0000
    1GR     C64   64   0.780   0.368   1.900  0.0000  0.0000  0.0000
    1GR     C65   65   0.425   0.491   1.900  0.0000  0.0000  0.0000
    1GR     C66   66   0.567   0.491   1.900  0.0000  0.0000  0.0000
    1GR     C67   67   0.638   0.614   1.900  0.0000  0.0000  0.0000
    1GR     C68   68   0.780   0.614   1.900  0.0000  0.0000  0.0000
    1GR     C69   69   0.425   0.737   1.900  0.0000  0.0000  0.0000
    1GR     C70   70   0.567   0.737   1.900  0.0000  0.0000  0.0000
    1GR     C71   71   0.638   0.860   1.900  0.0000  0.0000  0.0000
    1GR     C72   72   0.780   0.860   1.900  0.0000  0.0000  0.0000
    1GR     C73   73   0.425   0.982   1.900  0.0000  0.0000  0.0000
    1GR     C74   74   0.567   0.982   1.900  0.0000  0.0000  0.0000
    1GR     C75   75   0.638   1.105   1.900  0.0000  0.0000  0.0000
    1GR     C76   76   0.780   1.105   1.900  0.0000  0.0000  0.0000
    1GR     C77   77   0.425   1.228   1.900  0.0000  0.0000  0.0000
    1GR     C78   78   0.567   1.228   1.900  0.0000  0.0000  0.0000
    1GR     C79   79   0.638   1.351   1.900  0.0000  0.0000  0.0000
    1GR     C80   80   0.780   1.351   1.900  0.0000  0.0000  0.0000
    1GR     C81   81   0.425   1.474   1.900  0.0000  0.0000  0.0000
    1GR     C82   82   0.567   1.474   1.900  0.0000  0.0000  0.0000
    1GR     C83   83   0.638   1.596   1.900  0.0000  0.0000  0.0000
    1GR     C84   84   0.780   1.596   1.900  0.0000  0.0000  0.0000
    1GR     C85   85   0.425   1.719   1.900  0.0000  0.0000  0.0000
    1GR     C86   86   0.567   1.719   1.900  0.0000  0.0000  0.0000
    1GR     C87   87   0.638   1.842   1.900  0.0000  0.0000  0.0000
    1GR     C88   88   0.780   1.842   1.900  0.0000  0.0000  0.0000
    1GR     C89   89   0.425   1.965   1.900  0.0000  0.0000  0.0000
    1GR     C90   90   0.567   1.965   1.900  0.0000  0.0000  0.0000
    1GR     C91   91   0.638   2.088   1.900  0.0000  0.0000  0.0000
    1GR     C92   92   0.780   2.088   1.900  0.0000  0.0000  0.0000
    1GR     C93   93   0.425   2.210   1.900  0.0000  0.0000  0.0000
    1GR     C94   94   0.567   2.210   1.900  0.0000  0.0000  0.0000
    1GR     C95   95   0.638   2.333   1.900  0.0000  0.0000  0.0000
    1GR     C96   96   0.780   2.333   1.900  0.0000  0.0000  0.0000
    1GR     C97   97   0.425   2.456   1.900  0.0000  0.0000  0.0000
    1GR     C98   98   0.567   2.456   1.900  0.0000  0.0000  0.0000
    1GR     C99   99   0.638   2.579   1.900  0.0000  0.0000  0.0000
    1GR    C100  100   0.780   2.579   1.900  0.0000  0.0000  0.0000
    1GR    C101  101   0.425   2.702   1.900  0.0000  0.0000  0.0000
    1GR    C102  102   0.567   2.702   1.900  0.0000  0.0000  0.0000
    1GR    C103  103   0.638   2.824   1.900  0.0000  0.0000  0.0000
    1GR    C104  104   0.780   2.824   1.900  0.0000  0.0000  0.0000
    1GR    C105  105   0.425   2.947   1.900  0.0000  0.0000  0.0000
    1GR    C106  106   0.567   2.947   1.900  0.0000  0.0000  0.0000
    1GR    C107  107   0.638   3.070   1.900  0.0000  0.0000  0.0000
    1GR    C108  108   0.780   3.070   1.900  0.0000  0.0000  0.0000
    1GR    C109  109   0.425   3.193   1.900  0.0000  0.0000  0.0000
    1GR    C110  110   0.567   3.193   1.900  0.0000  0.0000  0.0000
    1GR    C111  111   0.638   3.316   1.900  0.0000  0.0000  0.0000
    1GR    C112  112   0.780   3.316   1.900  0.0000  0.0000  0.0000
    1GR    C113  113   0.851   3.438   1.900  0.0000  0.0000  0.0000
    1GR    C114  114   0.993   0.000   1.900  0.0000  0.0000  0.0000
    1GR    C115  115   1.064   0.123   1.900  0.0000  0.0000  0.0000
    1GR    C116  116   1.205   0.123   1.900  0.0000  0.0000  0.0000
    1GR    C117  117   0.851   0.246   1.900  0.0000  0.0000  0.0000
    1GR    C118  118   0.993   0.246   1.900  0.0000  0.0000  0.0000
    1GR    C119  119   1.064   0.368   1.900  0.0000  0.0000  0.0000
    1GR    C120  120   1.205   0.368   1.900  0.0000  0.0000  0.0000
    1GR    C121  121   0.851   0.491   1.900  0.0000  0.0000  0.0000
    1GR    C122  122   0.993   0.491   1.900  0.0000  0.0000  0.0000
    1GR    C123  123   1.064   0.614   1.900  0.0000  0.0000  0.0000
    1GR    C124  124   1.205   0.614   1.900  0.0000  0.0000  0.0000
    1GR    C125  125   0.851   0.737   1.900  0.0000  0.0000  0.0000
    1GR    C126  126   0.993   0.737   1.900  0.0000  0.0000  0.0000
    1GR    C127  127   1.064   0.860   1.900  0.0000  0.0000  0.0000
    1GR    C128  128   1.205   0.860   1.900  0.0000  0.0000  0.0000
    1GR    C129  129   0.851   0.982   1.900  0.0000  0.0000  0.0000
    1GR    C130  130   0.993   0.982   1.900  0.0000  0.0000  0.0000
    1GR    C131  131   1.064   1.105   1.900  0.0000  0.0000  0.0000
    1GR    C132  132   1.205   1.105   1.900  0.0000  0.0000  0.0000
    1GR    C133  133   0.851   1.228   1.900  0.0000  0.0000  0.0000
    1GR    C134  134   0.993   1.228   1.900  0.0000  0.0000  0.0000
    1GR    C135  135   1.064   1.351   1.900  0.0000  0.0000  0.0000
    1GR    C136  136   1.205   1.351   1.900  0.0000  0.0000  0.0000
    1GR    C137  137   0.851   1.474   1.900  0.0000  0.0000  0.0000
    1GR    C138  138   0.993   1.474   1.900  0.0000  0.0000  0.0000
    1GR    C139  139   1.064   1.596   1.900  0.0000  0.0000  0.0000
    1GR    C140  140   1.205   1.596   1.900  0.0000  0.0000  0.0000
    1GR    C141  141   0.851   1.719   1.900  0.0000  0.0000  0.0000
    1GR    C142  142   0.993   1.719   1.900  0.0000  0.0000  0.0000
    1GR    C143  143   1.064   1.842   1.900  0.0000  0.0000  0.0000
    1GR    C144  144   1.205   1.842   1.900  0.0000  0.0000  0.0000
    1GR    C145  145   0.851   1.965   1.900  0.0000  0.0000  0.0000
    1GR    C146  146   0.993   1.965   1.900  0.0000  0.0000  0.0000
    1GR    C147  147   1.064   2.088   1.900  0.0000  0.0000  0.0000
    1GR    C148  148   1.205   2.088   1.900  0.0000  0.0000  0.0000
    1GR    C149  149   0.851   2.210   1.900  0.0000  0.0000  0.0000
    1GR    C150  150   0.993   2.210   1.900  0.0000  0.0000  0.0000
    1GR    C151  151   1.064   2.333   1.900  0.0000  0.0000  0.0000
    1GR    C152  152   1.205   2.333   1.900  0.0000  0.0000  0.0000
    1GR    C153  153   0.851   2.456   1.900  0.0000  0.0000  0.0000
    1GR    C154  154   0.993   2.456   1.900  0.0000  0.0000  0.0000
    1GR    C155  155   1.064   2.579   1.900  0.0000  0.0000  0.0000
    1GR    C156  156   1.205   2.579   1.900  0.0000  0.0000  0.0000
    1GR    C157  157   0.851   2.702   1.900  0.0000  0.0000  0.0000
    1GR    C158  158   0.993   2.702   1.900  0.0000  0.0000  0.0000
    1GR    C159  159   1.064   2.824   1.900  0.0000  0.0000  0.0000
    1GR    C160  160   1.205   2.824   1.900  0.0000  0.0000  0.0000
    1GR    C161  161   0.851   2.947   1.900  0.0000  0.0000  0.0000
    1GR    C162  162   0.993   2.947   1.900  0.0000  0.0000  0.0000
    1GR    C163  163   1.064   3.070   1.900  0.0000  0.0000  0.0000
    1GR    C164  164   1.205   3.070   1.900  0.0000  0.0000  0.0000
    1GR    C165  165   0.851   3.193   1.900  0.0000  0.0000  0.0000
    1GR    C166  166   0.993   3.193   1.900  0.0000  0.0000  0.0000
    1GR    C167  167   1.064   3.316   1.900  0.0000  0.0000  0.0000
    1GR    C168  168   1.205   3.316   1.900  0.0000  0.0000  0.0000
    1GR    C169  169   1.276   0.000   1.900  0.0000  0.0000  0.0000
    1GR    C170  170   1.418   0.000   1.900  0.0000  0.0000  0.0000
    1GR    C171  171   1.489   0.123   1.900  0.0000  0.0000  0.0000
    1GR    C172  172   1.631   0.123   1.900  0.0000  0.0000  0.0000
    1GR    C173  173   1.276   0.246   1.900  0.0000  0.0000  0.0000
    1GR    C174  174   1.418   0.246   1.900  0.0000  0.0000  0.0000
    1GR    C175  175   1.489   0.368   1.900  0.0000  0.0000  0.0000
    1GR    C176  176   1.631   0.368   1.900  0.0000  0.0000  0.0000
    1GR    C177  177   1.276   0.491   1.900  0.0000  0.0000  0.0000
    1GR    C178  178   1.418   0.491   1.900  0.0000  0.0000  0.0000
    1GR    C179  179   1.489   0.614   1.900  0.0000  0.0000  0.0000
    1GR    C180  180   1.631   0.614   1.900  0.0000  0.0000  0.0000
    1GR    C181  181   1.276   0.737   1.900  0.0000  0.0000  0.0000
    1GR    C182  182   1.418   0.737   1.900  0.0000  0.0000  0.0000
    1GR    C183  183   1.489   0.860   1.900  0.0000  0.0000  0.0000
    1GR    C184  184   1.631   0.860   1.900  0.0000  0.0000  0.0000
    1GR    C185  185   1.276   0.982   1.900  0.0000  0.0000  0.0000
    1GR    C186  186   1.418   0.982   1.900  0.0000  0.0000  0.0000
    1GR    C187  187   1.489   1.105   1.900  0.0000  0.0000  0.0000
    1GR    C188  188   1.631   1.105   1.900  0.0000  0.0000  0.0000
    1GR    C189  189   1.276   1.228   1.900  0.0000  0.0000  0.0000
    1GR    C190  190   1.418   1.228   1.900  0.0000  0.0000  0.0000
    1GR    C191  191   1.489   1.351   1.900  0.0000  0.0000  0.0000
    1GR    C192  192   1.631   1.351   1.900  0.0000  0.0000  0.0000
    1GR    C193  193   1.276   1.474   1.900  0.0000  0.0000  0.0000
    1GR    C194  194   1.418   1.474   1.900  0.0000  0.0000  0.0000
    1GR    C195  195   1.489   1.596   1.900  0.0000  0.0000  0.0000
    1GR    C196  196   1.631   1.596   1.900  0.0000  0.0000  0.0000
    1GR    C197  197   1.276   1.719   1.900  0.0000  0.0000  0.0000
    1GR    C198  198   1.418   1.719   1.900  0.0000  0.0000  0.0000
    1GR    C199  199   1.489   1.842   1.900  0.0000  0.0000  0.0000
    1GR    C200  200   1.631   1.842   1.900  0.0000  0.0000  0.0000
    1GR    C201  201   1.276   1.965   1.900  0.0000  0.0000  0.0000
    1GR    C202  202   1.418   1.965   1.900  0.0000  0.0000  0.0000
    1GR    C203  203   1.489   2.088   1.900  0.0000  0.0000  0.0000
    1GR    C204  204   1.631   2.088   1.900  0.0000  0.0000  0.0000
    1GR    C205  205   1.276   2.210   1.900  0.0000  0.0000  0.0000
    1GR    C206  206   1.418   2.210   1.900  0.0000  0.0000  0.0000
    1GR    C207  207   1.489   2.333   1.900  0.0000  0.0000  0.0000
    1GR    C208  208   1.631   2.333   1.900  0.0000  0.0000  0.0000
    1GR    C209  209   1.276   2.456   1.900  0.0000  0.0000  0.0000
    1GR    C210  210   1.418   2.456   1.900  0.0000  0.0000  0.0000
    1GR    C211  211   1.489   2.579   1.900  0.0000  0.0000  0.0000
    1GR    C212  212   1.631   2.579   1.900  0.0000  0.0000  0.0000
    1GR    C213  213   1.276   2.702   1.900  0.0000  0.0000  0.0000
    1GR    C214  214   1.418   2.702   1.900  0.0000  0.0000  0.0000
    1GR    C215  215   1.489   2.824   1.900  0.0000  0.0000  0.0000
    1GR    C216  216   1.631   2.824   1.900  0.0000  0.0000  0.0000
    1GR    C217  217   1.276   2.947   1.900  0.0000  0.0000  0.0000
    1GR    C218  218   1.418   2.947   1.900  0.0000  0.0000  0.0000
    1GR    C219  219   1.489   3.070   1.900  0.0000  0.0000  0.0000
    1GR    C220  220   1.631   3.070   1.900  0.0000  0.0000  0.0000
    1GR    C221  221   1.276   3.193   1.900  0.0000  0.0000  0.0000
    1GR    C222  222   1.418   3.193   1.900  0.0000  0.0000  0.0000
    1GR    C223  223   1.489   3.316   1.900  0.0000  0.0000  0.0000
    1GR    C224  224   1.631   3.316   1.900  0.0000  0.0000  0.0000
    1GR    C225  225   1.702   0.000   1.900  0.0000  0.0000  0.0000
    1GR    C226  226   1.843   0.000   1.900  0.0000  0.0000  0.0000
    1GR    C227  227   1.914   0.123   1.900  0.0000  0.0000  0.0000
    1GR    C228  228   2.056   0.123   1.900  0.0000  0.0000  0.0000
    1GR    C229  229   1.702   0.246   1.900  0.0000  0.0000  0.0000
    1GR    C230  230   1.843   0.246   1.900  0.0000  0.0000  0.0000
    1GR    C231  231   1.914   0.368   1.900  0.0000  0.0000  0.0000
    1GR    C232  232   2.056   0.368   1.900  0.0000  0.0000  0.0000
    1GR    C233  233   1.702   0.491   1.900  0.0000  0.0000  0.0000
    1GR    C234  234   1.843   0.491   1.900  0.0000  0.0000  0.0000
    1GR    C235  235   1.914   0.614   1.900  0.0000  0.0000  0.0000
    1GR    C236  236   2.056   0.614   1.900  0.0000  0.0000  0.0000
    1GR    C237  237   1.702   0.737   1.900  0.0000  0.0000  0.0000
    1GR    C238  238   1.843   0.737   1.900  0.0000  0.0000  0.0000
    1GR    C239  239   1.914   0.860   1.900  0.0000  0.0000  0.0000
    1GR    C240  240   2.056   0.860   1.900  0.0000  0.0000  0.0000
    1GR    C241  241   1.702   0.982   1.900  0.0000  0.0000  0.0000
    1GR    C242  242   1.843   0.982   1.900  0.0000  0.0000  0.0000
    1GR    C243  243   1.914   1.105   1.900  0.0000  0.0000  0.0000
    1GR    C244  244   2.056   1.105   1.900  0.0000  0.0000  0.0000
    1GR    C245  245   1.702   1.228   1.900  0.0000  0.0000  0.0000
    1GR    C246  246   1.843   1.228   1.900  0.0000  0.0000  0.0000
    1GR    C247  247   1.914   1.351   1.900  0.0000  0.0000  0.0000
    1GR    C248  248   2.056   1.351   1.900  0.0000  0.0000  0.0000
    1GR    C249  249   1.702   1.474   1.900  0.0000  0.0000  0.0000
    1GR    C250  250   1.843   1.474   1.900  0.0000  0.0000  0.0000
    1GR    C251  251   1.914   1.596   1.900  0.0000  0.0000  0.0000
    1GR    C252  252   2.056   1.596   1.900  0.0000  0.0000  0.0000
    1GR    C253  253   1.702   1.719   1.900  0.0000  0.0000  0.0000
    1GR    C254  254   1.843   1.719   1.900  0.0000  0.0000  0.0000
    1GR    C255  255   1.914   1.842   1.900  0.0000  0.0000  0.0000
    1GR    C256  256   2.056   1.842   1.900  0.0000  0.0000  0.0000
    1GR    C257  257   1.702   1.965   1.900  0.0000  0.0000  0.0000
    1GR    C258  258   1.843   1.965   1.900  0.0000  0.0000  0.0000
    1GR    C259  259   1.914   2.088   1.900  0.0000  0.0000  0.0000
    1GR    C260  260   2.056   2.088   1.900  0.0000  0.0000  0.0000
    1GR    C261  261   1.702   2.210   1.900  0.0000  0.0000  0.0000
    1GR    C262  262   1.843   2.210   1.900  0.0000  0.0000  0.0000
    1GR    C263  263   1.914   2.333   1.900  0.0000  0.0000  0.0000
    1GR    C264  264   2.056   2.333   1.900  0.0000  0.0000  0.0000
    1GR    C265  265   1.702   2.456   1.900  0.0000  0.0000  0.0000
    1GR    C266  266   1.843   2.456   1.900  0.0000  0.0000  0.0000
    1GR    C267  267   1.914   2.579   1.900  0.0000  0.0000  0.0000
    1GR    C268  268   2.056   2.579   1.900  0.0000  0.0000  0.0000
    1GR    C269  269   1.702   2.702   1.900  0.0000  0.0000  0.0000
    1GR    C270  270   1.843   2.702   1.900  0.0000  0.0000  0.0000
    1GR    C271  271   1.914   2.824   1.900  0.0000  0.0000  0.0000
    1GR    C272  272   2.056   2.824   1.900  0.0000  0.0000  0.0000
    1GR    C273  273   1.702   2.947   1.900  0.0000  0.0000  0.0000
    1GR    C274  274   1.843   2.947   1.900  0.0000  0.0000  0.0000
    1GR    C275  275   1.914   3.070   1.900  0.0000  0.0000  0.0000
    1GR    C276  276   2.056   3.070   1.900  0.0000  0.0000  0.0000
    1GR    C277  277   1.702   3.193   1.900  0.0000  0.0000  0.0000
    1GR    C278  278   1.843   3.193   1.900  0.0000  0.0000  0.0000
    1GR    C279  279   1.914   3.316   1.900  0.0000  0.0000  0.0000
    1GR    C280  280   2.056   3.316   1.900  0.0000  0.0000  0.0000
    1GR    C281  281   2.127   0.000   1.900  0.0000  0.0000  0.0000
    1GR    C282  282   2.269   0.000   1.900  0.0000  0.0000  0.0000
    1GR    C283  283   2.340   0.123   1.900  0.0000  0.0000  0.0000
    1GR    C284  284   2.481   0.123   1.900  0.0000  0.0000  0.0000
    1GR    C285  285   2.127   0.246   1.900  0.0000  0.0000  0.0000
    1GR    C286  286   2.269   0.246   1.900  0.0000  0.0000  0.0000
    1GR    C287  287   2.340   0.368   1.900  0.0000  0.0000  0.0000
    1GR    C288  288   2.481   0.368   1.900  0.0000  0.0000  0.0000
    1GR    C289  289   2.127   0.491   1.900  0.0000  0.0000  0.0000
    1GR    C290  290   2.269   0.491   1.900  0.0000  0.0000  0.0000
    1GR    C291  291   2.340   0.614   1.900  0.0000  0.0000  0.0000
    1GR    C292  292   2.481   0.614   1.900  0.0000  0.0000  0.0000
    1GR    C293  293   2.127   0.737   1.900  0.0000  0.0000  0.0000
    1GR    C294  294   2.269   0.737   1.900  0.0000  0.0000  0.0000
    1GR    C295  295   2.340   0.860   1.900  0.0000  0.0000  0.0000
    1GR    C296  296   2.481   0.860   1.900  0.0000  0.0000  0.0000
    1GR    C297  297   2.127   0.982   1.900  0.0000  0.0000  0.0000
    1GR    C298  298   2.269   0.982   1.900  0.0000  0.0000  0.0000
    1GR    C299  299   2.340   1.105   1.900  0.0000  0.0000  0.0000
    1GR    C300  300   2.481   1.105   1.900  0.0000  0.0000  0.0000
    1GR    C301  301   2.127   1.228   1.900  0.0000  0.0000  0.0000
    1GR    C302  302   2.269   1.228   1.900  0.0000  0.0000  0.0000
    1GR    C303  303   2.340   1.351   1.900  0.0000  0.0000  0.0000
    1GR    C304  304   2.481   1.351   1.900  0.0000  0.0000  0.0000
    1GR    C305  305   2.127   1.474   1.900  0.0000  0.0000  0.0000
    1GR    C306  306   2.269   1.474   1.900  0.0000  0.0000  0.0000
    1GR    C307  307   2.340   1.596   1.900  0.0000  0.0000  0.0000
    1GR    C308  308   2.481   1.596   1.900  0.0000  0.0000  0.0000
    1GR    C309  309   2.127   1.719   1.900  0.0000  0.0000  0.0000
    1GR    C310  310   2.269   1.719   1.900  0.0000  0.0000  0.0000
    1GR    C311  311   2.340   1.842   1.900  0.0000  0.0000  0.0000
    1GR    C312  312   2.481   1.842   1.900  0.0000  0.0000  0.0000
    1GR    C313  313   2.127   1.965   1.900  0.0000  0.0000  0.0000
    1GR    C314  314   2.269   1.965   1.900  0.0000  0.0000  0.0000
    1GR    C315  315   2.340   2.088   1.900  0.0000  0.0000  0.0000
    1GR    C316  316   2.481   2.088   1.900  0.0000  0.0000  0.0000
    1GR    C317  317   2.127   2.210   1.900  0.0000  0.0000  0.0000
    1GR    C318  318   2.269   2.210   1.900  0.0000  0.0000  0.0000
    1GR    C319  319   2.340   2.333   1.900  0.0000  0.0000  0.0000
    1GR    C320  320   2.481   2.333   1.900  0.0000  0.0000  0.0000
    1GR    C321  321   2.127   2.456   1.900  0.0000  0.0000  0.0000
    1GR    C322  322   2.269   2.456   1.900  0.0000  0.0000  0.0000
    1GR    C323  323   2.340   2.579   1.900  0.0000  0.0000  0.0000
    1GR    C324  324   2.481   2.579   1.900  0.0000  0.0000  0.0000
    1GR    C325  325   2.127   2.702   1.900  0.0000  0.0000  0.0000
    1GR    C326  326   2.269   2.702   1.900  0.0000  0.0000  0.0000
    1GR    C327  327   2.340   2.824   1.900  0.0000  0.0000  0.0000
    1GR    C328  328   2.481   2.824   1.900  0.0000  0.0000  0.0000
    1GR    C329  329   2.127   2.947   1.900  0.0000  0.0000  0.0000
    1GR    C330  330   2.269   2.947   1.900  0.0000  0.0000  0.0000
    1GR    C331  331   2.340   3.070   1.900  0.0000  0.0000  0.0000
    1GR    C332  332   2.481   3.070   1.900  0.0000  0.0000  0.0000
    1GR    C333  333   2.127   3.193   1.900  0.0000  0.0000  0.0000
    1GR    C334  334   2.269   3.193   1.900  0.0000  0.0000  0.0000
    1GR    C335  335   2.340   3.316   1.900  0.0000  0.0000  0.0000
    1GR    C336  336   2.481   3.316   1.900  0.0000  0.0000  0.0000
    1GR    C337  337   2.552   0.000   1.900  0.0000  0.0000  0.0000
    1GR    C338  338   2.694   0.000   1.900  0.0000  0.0000  0.0000
    1GR    C339  339   2.765   0.123   1.900  0.0000  0.0000  0.0000
    1GR    C340  340   2.907   0.123   1.900  0.0000  0.0000  0.0000
    1GR    C341  341   2.552   0.246   1.900  0.0000  0.0000  0.0000
    1GR    C342  342   2.694   0.246   1.900  0.0000  0.0000  0.0000
    1GR    C343  343   2.765   0.368   1.900  0.0000  0.0000  0.0000
    1GR    C344  344   2.907   0.368   1.900  0.0000  0.0000  0.0000
    1GR    C345  345   2.552   0.491   1.900  0.0000  0.0000  0.0000
    1GR    C346  346   2.694   0.491   1.900  0.0000  0.0000  0.0000
    1GR    C347  347   2.765   0.614   1.900  0.0000  0.0000  0.0000
    1GR    C348  348   2.907   0.614   1.900  0.0000  0.0000  0.0000
    1GR    C349  349   2.552   0.737   1.900  0.0000  0.0000  0.0000
    1GR    C350  350   2.694   0.737   1.900  0.0000  0.0000  0.0000
    1GR    C351  351   2.765   0.860   1.900  0.0000  0.0000  0.0000
    1GR    C352  352   2.907   0.860   1.900  0.0000  0.0000  0.0000
    1GR    C353  353   2.552   0.982   1.900  0.0000  0.0000  0.0000
    1GR    C354  354   2.694   0.982   1.900  0.0000  0.0000  0.0000
    1GR    C355  355   2.765   1.105   1.900  0.0000  0.0000  0.0000
    1GR    C356  356   2.907   1.105   1.900  0.0000  0.0000  0.0000
    1GR    C357  357   2.552   1.228   1.900  0.0000  0.0000  0.0000
    1GR    C358  358   2.694   1.228   1.900  0.0000  0.0000  0.0000
    1GR    C359  359   2.765   1.351   1.900  0.0000  0.0000  0.0000
    1GR    C360  360   2.907   1.351   1.900  0.0000  0.0000  0.0000
    1GR    C361  361   2.552   1.474   1.900  0.0000  0.0000  0.0000
    1GR    C362  362   2.694   1.474   1.900  0.0000  0.0000  0.0000
    1GR    C363  363   2.765   1.596   1.900  0.0000  0.0000  0.0000
    1GR    C364  364   2.907   1.596   1.900  0.0000  0.0000  0.0000
    1GR    C365  365   2.552   1.719   1.900  0.0000  0.0000  0.0000
    1GR    C366  366   2.694   1.719   1.900  0.0000  0.0000  0.0000
    1GR    C367  367   2.765   1.842   1.900  0.0000  0.0000  0.0000
    1GR    C368  368   2.907   1.842   1.900  0.0000  0.0000  0.0000
    1GR    C369  369   2.552   1.965   1.900  0.0000  0.0000  0.0000
    1GR    C370  370   2.694   1.965   1.900  0.0000  0.0000  0.0000
    1GR    C371  371   2.765   2.088   1.900  0.0000  0.0000  0.0000
    1GR    C372  372   2.907   2.088   1.900  0.0000  0.0000  0.0000
    1GR    C373  373   2.552   2.210   1.900  0.0000  0.0000  0.0000
    1GR    C374  374   2.694   2.210   1.900  0.0000  0.0000  0.0000
    1GR    C375  375   2.765   2.333   1.900  0.0000  0.0000  0.0000
    1GR    C376  376   2.907   2.333   1.900  0.0000  0.0000  0.0000
    1GR    C377  377   2.552   2.456   1.900  0.0000  0.0000  0.0000
    1GR    C378  378   2.694   2.456   1.900  0.0000  0.0000  0.0000
    1GR    C379  379   2.765   2.579   1.900  0.0000  0.0000  0.0000
    1GR    C380  380   2.907   2.579   1.900  0.0000  0.0000  0.0000
    1GR    C381  381   2.552   2.702   1.900  0.0000  0.0000  0.0000
    1GR    C382  382   2.694   2.702   1.900  0.0000  0.0000  0.0000
    1GR    C383  383   2.765   2.824   1.900  0.0000  0.0000  0.0000
    1GR    C384  384   2.907   2.824   1.900  0.0000  0.0000  0.0000
    1GR    C385  385   2.552   2.947   1.900  0.0000  0.0000  0.0000
    1GR    C386  386   2.694   2.947   1.900  0.0000  0.0000  0.0000
    1GR    C387  387   2.765   3.070   1.900  0.0000  0.0000  0.0000
    1GR    C388  388   2.907   3.070   1.900  0.0000  0.0000  0.0000
    1GR    C389  389   2.552   3.193   1.900  0.0000  0.0000  0.0000
    1GR    C390  390   2.694   3.193   1.900  0.0000  0.0000  0.0000
    1GR    C391  391   2.765   3.316   1.900  0.0000  0.0000  0.0000
    1GR    C392  392   2.907   3.316   1.900  0.0000  0.0000  0.0000
    1GR    C393  393   2.978   0.000   1.900  0.0000  0.0000  0.0000
    1GR    C394  394   3.120   0.000   1.900  0.0000  0.0000  0.0000
    1GR    C395  395   3.191   0.123   1.900  0.0000  0.0000  0.0000
    1GR    C396  396   3.332   0.123   1.900  0.0000  0.0000  0.0000
    1GR    C397  397   2.978   0.246   1.900  0.0000  0.0000  0.0000
    1GR    C398  398   3.120   0.246   1.900  0.0000  0.0000  0.0000
    1GR    C399  399   3.191   0.368   1.900  0.0000  0.0000  0.0000
    1GR    C400  400   3.332   0.368   1.900  0.0000  0.0000  0.0000
    1GR    C401  401   2.978   0.491   1.900  0.0000  0.0000  0.0000
    1GR    C402  402   3.120   0.491   1.900  0.0000  0.0000  0.0000
    1GR    C403  403   3.191   0.614   1.900  0.0000  0.0000  0.0000
    1GR    C404  404   3.332   0.614   1.900  0.0000  0.0000  0.0000
    1GR    C405  405   2.978   0.737   1.900  0.0000  0.0000  0.0000
    1GR    C406  406   3.120   0.737   1.900  0.0000  0.0000  0.0000
    1GR    C407  407   3.191   0.860   1.900  0.0000  0.0000  0.0000
    1GR    C408  408   3.332   0.860   1.900  0.0000  0.0000  0.0000
    1GR    C409  409   2.978   0.982   1.900  0.0000  0.0000  0.0000
    1GR    C410  410   3.120   0.982   1.900  0.0000  0.0000  0.0000
    1GR    C411  411   3.191   1.105   1.900  0.0000  0.0000  0.0000
    1GR    C412  412   3.332   1.105   1.900  0.0000  0.0000  0.0000
    1GR    C413  413   2.978   1.228   1.900  0.0000  0.0000  0.0000
    1GR    C414  414   3.120   1.228   1.900  0.0000  0.0000  0.0000
    1GR    C415  415   3.191   1.351   1.900  0.0000  0.0000  0.0000
    1GR    C416  416   3.332   1.351   1.900  0.0000  0.0000  0.0000
    1GR    C417  417   2.978   1.474   1.900  0.0000  0.0000  0.0000
    1GR    C418  418   3.120   1.474   1.900  0.0000  0.0000  0.0000
    1GR    C419  419   3.191   1.596   1.900  0.0000  0.0000  0.0000
    1GR    C420  420   3.332   1.596   1.900  0.0000  0.0000  0.0000
    1GR    C421  421   2.978   1.719   1.900  0.0000  0.0000  0.0000
    1GR    C422  422   3.120   1.719   1.900  0.0000  0.0000  0.0000
    1GR    C423  423   3.191   1.842   1.900  0.0000  0.0000  0.0000
    1GR    C424  424   3.332   1.842   1.900  0.0000  0.0000  0.0000
    1GR    C425  425   2.978   1.965   1.900  0.0000  0.0000  0.0000
    1GR    C426  426   3.120   1.965   1.900  0.0000  0.0000  0.0000
    1GR    C427  427   3.191   2.088   1.900  0.0000  0.0000  0.0000
    1GR    C428  428   3.332   2.088   1.900  0.0000  0.0000  0.0000
    1GR    C429  429   2.978   2.210   1.900  0.0000  0.0000  0.0000
    1GR    C430  430   3.120   2.210   1.900  0.0000  0.0000  0.0000
    1GR    C431  431   3.191   2.333   1.900  0.0000  0.0000  0.0000
    1GR    C432  432   3.332   2.333   1.900  0.0000  0.0000  0.0000
    1GR    C433  433   2.978   2.456   1.900  0.0000  0.0000  0.0000
    1GR    C434  434   3.120   2.456   1.900  0.0000  0.0000  0.0000
    1GR    C435  435   3.191   2.579   1.900  0.0000  0.0000  0.0000
    1GR    C436  436   3.332   2.579   1.900  0.0000  0.0000  0.0000
    1GR    C437  437   2.978   2.702   1.900  0.0000  0.0000  0.0000
    1GR    C438  438   3.120   2.702   1.900  0.0000  0.0000  0.0000
    1GR    C439  439   3.191   2.824   1.900  0.0000  0.0000  0.0000
    1GR    C440  440   3.332   2.824   1.900  0.0000  0.0000  0.0000
    1GR    C441  441   2.978   2.947   1.900  0.0000  0.0000  0.0000
    1GR    C442  442   3.120   2.947   1.900  0.0000  0.0000  0.0000
    1GR    C443  443   3.191   3.070   1.900  0.0000  0.0000  0.0000
    1GR    C444  444   3.332   3.070   1.900  0.0000  0.0000  0.0000
    1GR    C445  445   2.978   3.193   1.900  0.0000  0.0000  0.0000
    1GR    C446  446   3.120   3.193   1.900  0.0000  0.0000  0.0000
    1GR    C447  447   3.191   3.316   1.900  0.0000  0.0000  0.0000
    1GR    C448  448   3.332   3.316   1.900  0.0000  0.0000  0.0000
    2PMMA   CX1  449   1.555   0.397   3.110  0.1263 -0.0562  0.1735
    2PMMA   CA2  450   1.613   0.258   3.072  0.2525  0.1168 -0.6883
    2PMMA   CX3  451   1.529   0.175   3.168  0.2706  0.7735  0.1812
    2PMMA    C4  452   1.591   0.229   2.917 -0.4037  0.5746 -0.4607
    2PMMA    O5  453   1.644   0.297   2.837 -0.9565  0.1291 -0.3922
    2PMMA   OS6  454   1.518   0.120   2.887  0.0008  0.1984 -0.6104
    2PMMA   CE7  455   1.495   0.094   2.745 -0.5960  0.2656  0.5091
    2PMMA   CX8  456   1.760   0.251   3.097 -0.4331  0.3680  0.0153
    2PMMA   CA9  457   1.845   0.115   3.087 -0.1895  0.1268 -0.2517
    2PMMA  CX10  458   1.823   0.042   2.945 -0.1996  0.2410 -0.7579
    2PMMA   C11  459   1.799   0.017   3.197  0.0091  0.2862 -0.1361
    2PMMA   O12  460   1.773  -0.097   3.179  0.3112 -0.1320 -0.5959
    2PMMA  OS13  461   1.788   0.077   3.321 -0.1191 -0.0140 -0.3709
    2PMMA  CE14  462   1.730   0.009   3.435  0.6960 -0.0510  0.2243
    2PMMA  CX15  463   1.998   0.152   3.122  0.3764  0.5080  0.6815
    2PMMA  CA16  464   2.119   0.052   3.087 -0.7748  0.4287  0.2450
    2PMMA  CX17  465   2.092  -0.086   3.156 -0.0645 -0.5087  0.0406
    2PMMA   C18  466   2.144   0.033   2.938 -0.4894  0.5874  0.0414
    2PMMA   O19  467   2.175  -0.068   2.883  0.0186 -0.2779 -0.0066
    2PMMA  OS20  468   2.147   0.148   2.879  0.2646  0.2481  0.1889
    2PMMA  CE21  469   2.162   0.154   2.743 -0.1393  0.0440  0.5377
    2PMMA  CX22  470   2.248   0.122   3.143  0.5138  0.0532 -0.0364
    2PMMA  CA23  471   2.386   0.054   3.175 -0.1495  0.5440  0.3325
    2PMMA  CX24  472   2.452  -0.006   3.048  0.0389  0.4137 -0.7342
    2PMMA   C25  473   2.378  -0.050   3.293 -0.1225  0.6596  0.3769
    2PMMA   O26  474   2.433  -0.157   3.289  0.1344  0.1931  0.8584
    2PMMA  OS27  475   2.284  -0.028   3.395  0.0348  0.5145  0.1430
    2PMMA  CE28  476   2.265  -0.119   3.506 -0.1371 -0.2980  0.6791
    2PMMA  CX29  477   2.497   0.147   3.233  0.5221  0.5073  0.3737
    2PMMA  HC30  478   1.451   0.410   3.078  0.4897  0.8794 -0.6674
    2PMMA  HC31  479   1.565   0.427   3.215 -0.7440 -0.6252  0.4235
    2PMMA  HC32  480   1.603   0.474   3.048  0.6242 -1.0557 -0.7070
    2PMMA  HC33  481   1.422   0.192   3.152 -0.1069 -1.8507 -0.3796
    2PMMA  HC34  482   1.546   0.183   3.275  0.9083 -0.5394  0.1914
    2PMMA  HC35  483   1.548   0.071   3.136  0.8201  1.2219 -0.9864
    2PMMA  H136  484   1.416   0.020   2.735  1.1274 -1.4309 -1.0586
    2PMMA  H137  485   1.584   0.060   2.692 -0.1921  1.2156  0.5475
    2PMMA  H138  486   1.467   0.189   2.698 -0.1636  2.1518  3.9027
    2PMMA  HC39  487   1.814   0.319   3.030  2.2528 -0.6681  1.0395
    2PMMA  HC40  488   1.777   0.300   3.193  0.6399  0.4027 -0.1822
    2PMMA  HC41  489   1.717   0.018   2.933  0.0995 -2.0430  0.8046
    2PMMA  HC42  490   1.862   0.113   2.872 -0.3950  1.2000  0.0514
    2PMMA  HC43  491   1.885  -0.047   2.933  1.1451  1.3670 -2.3787
    2PMMA  H144  492   1.765   0.046   3.531  0.4801  2.4898 -0.6347
    2PMMA  H145  493   1.754  -0.097   3.430  2.5838  0.4046 -0.5150
    2PMMA  H146  494   1.621   0.013   3.437  0.6310 -0.5806 -1.2973
    2PMMA  HC47  495   2.012   0.248   3.070 -2.1532  0.8124  0.5139
    2PMMA  HC48  496   2.004   0.186   3.226  1.3747 -1.7406  1.3856
    2PMMA  HC49  497   2.051  -0.077   3.257  0.2527 -1.4486  0.2607
    2PMMA  HC50  498   2.175  -0.153   3.181  0.3755  0.3923  1.0831
    2PMMA  HC51  499   2.017  -0.141   3.099 -0.4596 -0.1958  0.2585
    2PMMA  H152  500   2.264   0.120   2.725  0.8096  2.8669  0.2831
    2PMMA  H153  501   2.154   0.258   2.711  0.3496  0.4220  1.6067
    2PMMA  H154  502   2.097   0.088   2.687 -1.5104  1.3203  0.5927
    2PMMA  HC55  503   2.262   0.210   3.079  0.7934  0.8498  1.1032
    2PMMA  HC56  504   2.224   0.177   3.235  1.6593  2.1204 -0.9379
    2PMMA  HC57  505   2.432   0.058   2.962 -2.3332 -0.7889 -1.1279
    2PMMA  HC58  506   2.560  -0.026   3.049 -0.1087 -0.5589  1.7249
    2PMMA  HC59  507   2.402  -0.099   3.018 -0.8446  0.6142  0.0685
    2PMMA  H160  508   2.265  -0.222   3.470 -2.1446  0.5320 -1.8910
    2PMMA  H161  509   2.168  -0.086   3.543 -0.5377 -1.0797  0.3475
    2PMMA  H162  510   2.347  -0.099   3.576  0.6084  2.0370 -0.8013
    2PMMA  HC63  511   2.586   0.100   3.276 -1.5784 -1.2184  3.0632
    2PMMA  HC64  512   2.530   0.213   3.153  2.1068 -2.1377 -1.2322
    2PMMA  HC65  513   2.455   0.210   3.312 -1.0337  0.4996 -0.4325
    3DMF     C1  514   1.442   0.864   3.746 -0.0700 -0.7268  0.3613
    3DMF     N1  515   1.499   0.744   3.676 -0.3995 -0.0790 -0.0615
    3DMF     C2  516   1.535   0.757   3.537  0.0532 -0.2568  0.1988
    3DMF     C3  517   1.501   0.615   3.738 -0.3044  0.6199  0.1436
    3DMF     O1  518   1.472   0.587   3.856  0.2207 -0.2194 -0.1956
    3DMF     H1  519   1.517   0.896   3.820 -0.3380 -0.7636  0.6523
    3DMF     H2  520   1.339   0.859   3.786 -0.2740 -1.2480 -0.2161
    3DMF     H3  521   1.430   0.948   3.676 -0.7189 -0.2537  1.0246
    3DMF     H4  522   1.467   0.700   3.473 -0.7012 -1.1384  1.7485
    3DMF     H5  523   1.636   0.720   3.514 -0.4358 -1.2711 -0.3645
    3DMF     H6  524   1.525   0.859   3.498  1.9950  0.1998  0.8208
    3DMF     H7  525   1.530   0.535   3.668 -1.2383  0.6876 -0.3252
    4DMF     C1  526   1.065   2.743   2.433  0.2253  0.0418  0.1530
    4DMF     N1  527   0.964   2.726   2.328 -0.1525  0.4422  0.2912
    4DMF     C2  528   0.839   2.648   2.367 -0.3763 -0.5322 -0.3983
    4DMF     C3  529   0.952   2.836   2.236 -0.0904  0.8276 -0.0443
    4DMF     O1  530   1.019   2.935   2.224 -0.0900  0.1569 -0.3757
    4DMF     H1  531   1.071   2.847   2.469 -0.4965  0.2463 -0.3184
    4DMF     H2  532   1.160   2.705   2.393 -0.2531 -1.0470  0.0376
    4DMF     H3  533   1.036   2.678   2.517 -0.5204  1.1804  0.8058
    4DMF     H4  534   0.863   2.546   2.400 -1.4210 -0.3683  0.8848
    4DMF     H5  535   0.782   2.636   2.274 -0.7860 -1.4742 -0.0262
    4DMF     H6  536   0.779   2.704   2.439  0.3832  0.6029 -0.6313
    4DMF     H7  537   0.859   2.819   2.179 -1.4100  2.1958  1.6653
    5DMF     C1  538   1.934   1.275   0.703 -0.3947 -0.3449  0.3404
    5DMF     N1  539   1.821   1.322   0.631 -0.1788 -0.3081  0.9708
    5DMF     C2  540   1.822   1.324   0.486  0.1547 -0.5598 -0.0039
    5DMF     C3  541   1.708   1.363   0.702  0.2745  0.6611 -0.3115
    5DMF     O1  542   1.701   1.370   0.824  0.0512 -0.3974  0.0148
    5DMF     H1  543   2.026   1.273   0.644 -0.9881 -1.8145 -0.5764
    5DMF     H2  544   1.916   1.177   0.750  1.0840 -0.9571 -0.3492
    5DMF     H3  545   1.952   1.348   0.783  2.2761  0.7320 -1.1900
    5DMF     H4  546   1.895   1.258   0.439 -1.5671 -1.0463 -2.1011
    5DMF     H5  547   1.837   1.422   0.439 -1.0637 -0.6861 -0.7012
    5DMF     H6  548   1.728   1.281   0.449 -0.7320 -0.0512  1.6165
    5DMF     H7  549   1.623   1.394   0.638  0.9862 -1.2317 -2.2193
    6DMF     C1  550   1.189   0.452   2.270 -0.4607  0.1239 -0.5174
    6DMF     N1  551   1.213   0.588   2.322  0.6172  0.0748 -0.1904
    6DMF     C2  552   1.133   0.695   2.279  0.1722  0.4382  0.3503
    6DMF     C3  553   1.311   0.605   2.428 -0.7490 -0.0285 -0.6014
    6DMF     O1  554   1.389   0.523   2.473  0.1396 -0.4105 -0.5067
    6DMF     H1  555   1.251   0.445   2.180 -0.9788 -0.2271 -0.8528
    6DMF     H2  556   1.086   0.451   2.232 -0.3444 -1.6278 -0.8251
    6DMF     H3  557   1.206   0.372   2.343 -1.6280 -0.0360 -0.4012
    6DMF     H4  558   1.025   0.684   2.296  0.4010 -2.6619  0.0088
    6DMF     H5  559   1.161   0.712   2.175  0.7447 -0.9084  0.2721
    6DMF     H6  560   1.164   0.790   2.325  0.0920  1.7449 -2.2031
    6DMF     H7  561   1.316   0.709   2.466  0.5701 -1.3441  2.9449
    7DMF     C1  562   3.219   0.109   2.933 -0.0709 -0.1964 -0.8494
    7DMF     N1  563   3.176   0.023   3.041  0.4908 -0.0217  0.1630
    7DMF     C2  564   3.154  -0.118   3.011 -0.2622 -0.5740 -0.1664
    7DMF     C3  565   3.187   0.071   3.172  0.7286 -0.1422  0.0092
    7DMF     O1  566   3.219   0.187   3.201  0.4049  0.6132  0.0748
    7DMF     H1  567   3.210   0.216   2.955  1.1688 -0.3221  0.3736
    7DMF     H2  568   3.152   0.093   2.848  1.5852  0.8023 -2.3579
    7DMF     H3  569   3.325   0.083   2.922  0.0596 -0.8635  1.5142
    7DMF     H4  570   3.048  -0.129   2.984 -0.3985 -0.7369  0.4279
    7DMF     H5  571   3.166  -0.174   3.105  1.0715 -0.3429 -0.1801
    7DMF     H6  572   3.225  -0.158   2.937 -2.1220 -2.0793 -1.1761
    7DMF     H7  573   3.146  -0.005   3.241  1.8521 -0.9354 -0.1851
    8DMF     C1  574   2.045   1.936   2.917  0.1713  0.0736  0.0163
    8DMF     N1  575   2.003   1.943   3.059  0.2101  0.1303 -0.3756
    8DMF     C2  576   1.985   1.814   3.127 -0.3369  0.6303  0.4668
    8DMF     C3  577   2.006   2.063   3.119 -0.3748 -0.7745  0.0504
    8DMF     O1  578   2.029   2.165   3.051  0.3951  0.1549 -0.0062
    8DMF     H1  579   2.016   2.022   2.855 -0.1411 -2.0250 -2.8372
    8DMF     H2  580   1.988   1.860   2.863 -1.3152  1.4882 -0.4564
    8DMF     H3  581   2.152   1.913   2.913  0.4086  1.1139  0.0387
    8DMF     H4  582   2.086   1.778   3.151  1.4998  4.1534 -1.5630
    8DMF     H5  583   1.929   1.735   3.075 -0.2606 -1.7813  3.8652
    8DMF     H6  584   1.929   1.831   3.220  1.4618 -1.9089  2.0694
    8DMF     H7  585   1.992   2.070   3.229  0.6584 -0.6984  0.1828
    9DMF     C1  586   1.351   2.498   2.743 -0.4906 -0.1090  0.5543
    9DMF     N1  587   1.319   2.385   2.647 -0.1150 -0.0280  0.0081
    9DMF     C2  588   1.432   2.290   2.636 -0.7238 -0.2049 -0.0680
    9DMF     C3  589   1.194   2.368   2.584  0.7692 -0.9051  0.4572
    9DMF     O1  590   1.102   2.449   2.589 -0.1456  0.1050 -0.1367
    9DMF     H1  591   1.340   2.465   2.847 -1.4883 -0.0061  0.4958
    9DMF     H2  592   1.286   2.586   2.732 -0.1441  0.2546  1.4114
    9DMF     H3  593   1.450   2.540   2.720 -0.2835 -0.2954  1.1181
    9DMF     H4  594   1.487   2.301   2.542  0.7564 -2.4517  0.4847
    9DMF     H5  595   1.376   2.196   2.626 -0.4870 -0.0362 -3.3838
    9DMF     H6  596   1.502   2.281   2.720  0.7232 -2.6175 -1.4511
    9DMF     H7  597   1.198   2.276   2.524 -0.7942 -0.6457 -0.0645
   10DMF     C1  598   0.847   1.848   1.091 -0.2759 -0.4082 -0.0883
   10DMF     N1  599   0.748   1.747   1.117  0.3445 -0.8189  0.4561
   10DMF     C2  600   0.793   1.629   1.180  0.2495  0.1988  0.2951
   10DMF     C3  601   0.609   1.781   1.126 -0.5501  0.2229 -0.5864
   10DMF     O1  602   0.576   1.896   1.116  0.5094 -0.9504  0.3691
   10DMF     H1  603   0.925   1.798   1.032 -0.0722  2.2868 -2.2279
   10DMF     H2  604   0.894   1.882   1.183  2.1501 -0.8109 -1.1523
   10DMF     H3  605   0.811   1.934   1.032  0.3527 -0.7552 -0.9860
   10DMF     H4  606   0.865   1.572   1.120 -1.0366  0.0352 -1.1305
   10DMF     H5  607   0.701   1.571   1.195 -0.0469 -0.0233 -2.1502
   10DMF     H6  608   0.827   1.658   1.280 -1.6710 -1.3440  1.4155
   10DMF     H7  609   0.537   1.699   1.140 -0.1143 -0.4970 -2.4697
   11DMF     C1  610   0.106   0.644   0.640  0.0148  0.5288  0.1724
   11DMF     N1  611   0.166   0.775   0.684  0.0057 -0.3554 -0.1915
   11DMF     C2  612   0.076   0.888   0.700  0.1625 -0.3808 -0.4029
   11DMF     C3  613   0.296   0.787   0.723 -0.0839 -0.7075 -0.3791
   11DMF     O1  614   0.373   0.697   0.729  0.5173 -0.2088  0.1593
   11DMF     H1  615   0.173   0.606   0.561 -0.0098 -1.9204  1.2834
   11DMF     H2  616   0.009   0.666   0.595 -0.8428 -0.7217  1.3671
   11DMF     H3  617   0.101   0.581   0.729 -2.7604  3.3014  2.0627
   11DMF     H4  618   0.011   0.890   0.612 -0.6073  1.0669  0.1880
   11DMF     H5  619   0.122   0.987   0.707 -3.4720  1.3229  0.6949
   11DMF     H6  620   0.023   0.881   0.796  0.4562 -0.5363 -0.2494
   11DMF     H7  621   0.322   0.890   0.754 -2.8286  0.8442 -3.0088
   12DMF     C1  622   2.630   2.118   1.492 -0.1868 -0.1401 -0.0406
   12DMF     N1  623   2.711   1.998   1.512 -0.1962 -0.5489  0.7561
   12DMF     C2  624   2.648   1.878   1.571  0.8673  0.8203 -0.3920
   12DMF     C3  625   2.848   1.994   1.479 -1.1088 -0.4215  0.3865
   12DMF     O1  626   2.911   2.095   1.451 -0.6848  0.0317  0.0644
   12DMF     H1  627   2.657   2.166   1.397  1.9444 -0.8934  0.1607
   12DMF     H2  628   2.643   2.190   1.574 -1.9444  2.1037 -1.6488
   12DMF     H3  629   2.523   2.095   1.494 -0.3557  0.6600  0.2975
   12DMF     H4  630   2.715   1.837   1.647 -0.4209 -3.7056 -1.5659
   12DMF     H5  631   2.604   1.807   1.500 -1.6680 -0.4669  2.3775
   12DMF     H6  632   2.575   1.922   1.640  1.3936 -1.0660  1.4103
   12DMF     H7  633   2.896   1.897   1.504  0.2541 -0.2075 -1.2839
   13DMF     C1  634   1.588   1.107   2.259 -0.1630 -0.3061  0.1709
   13DMF     N1  635   1.616   0.967   2.267 -0.3125  1.0167  0.0324
   13DMF     C2  636   1.748   0.914   2.290 -0.7002 -0.0623  0.1869
   13DMF     C3  637   1.518   0.874   2.252  1.1277 -0.0536  0.4622
   13DMF     O1  638   1.395   0.900   2.237  0.7438  0.1544  0.2959
   13DMF     H1  639   1.548   1.133   2.160  0.7000 -0.4337 -0.2114
   13DMF     H2  640   1.676   1.168   2.281 -1.6983  1.3334  1.9707
   13DMF     H3  641   1.513   1.130   2.336  1.2513 -0.7379  1.6854
   13DMF     H4  642   1.785   0.833   2.226  0.1975  1.5481 -1.3709
   13DMF     H5  643   1.763   0.883   2.394 -0.9055  2.6567  1.0551
   13DMF     H6  644   1.818   0.998   2.276 -0.3694 -0.1132  1.4864
   13DMF     H7  645   1.552   0.769   2.261  3.4800  0.4876 -1.4488
   14DMF     C1  646   2.864   1.907   3.400 -0.9718  0.4143 -0.1736
   14DMF     N1  647   2.783   1.973   3.500  0.2277  0.5522  0.2543
   14DMF     C2  648   2.792   1.933   3.635  1.0875 -0.1786 -0.5538
   14DMF     C3  649   2.719   2.097   3.469 -0.4283  0.3380 -0.2373
   14DMF     O1  650   2.723   2.144   3.356  0.0932 -0.2569  0.4216
   14DMF     H1  651   2.944   1.852   3.450 -0.5333  2.0217  0.9466
   14DMF     H2  652   2.913   1.973   3.328 -2.5833  1.1632 -0.6260
   14DMF     H3  653   2.793   1.836   3.355  1.9571 -2.5027 -0.3149
   14DMF     H4  654   2.841   2.011   3.695  0.7313 -0.6486  0.3489
   14DMF     H5  655   2.830   1.832   3.656 -2.8188 -1.7246 -0.5838
   14DMF     H6  656   2.690   1.926   3.674  0.9918  2.1590 -0.2905
   14DMF     H7  657   2.671   2.137   3.560 -0.2043 -2.9758  1.4455
   15DMF     C1  658   2.352   1.138   2.708  0.2901 -0.0394 -0.0986
   15DMF     N1  659   2.386   1.281   2.726 -0.7272  0.5723  0.0780
   15DMF     C2  660   2.313   1.384   2.654  0.4456 -0.1861  0.0426
   15DMF     C3  661   2.479   1.315   2.831  0.5309  0.3326 -0.5988
   15DMF     O1  662   2.561   1.233   2.875  0.0338  0.1997 -0.1025
   15DMF     H1  663   2.352   1.090   2.806  0.9618  0.1602  0.0037
   15DMF     H2  664   2.431   1.099   2.643  0.0156 -2.4593  0.9877
   15DMF     H3  665   2.253   1.129   2.663 -0.0742  1.0124  0.4733
   15DMF     H4  666   2.247   1.433   2.727 -0.0597 -1.2925  0.3387
   15DMF     H5  667   2.255   1.344   2.570  1.8054  0.5379 -1.2629
   15DMF     H6  668   2.389   1.455   2.619  1.6237 -1.9424 -1.0104
   15DMF     H7  669   2.470   1.415   2.877  0.7577 -0.9701  2.4295
   16DMF     C1  670   0.816   0.099   3.538  0.1567  0.6410  0.1657
   16DMF     N1  671   0.948   0.031   3.514 -0.1457  1.3473 -0.1312
   16DMF     C2  672   1.067   0.115   3.499  0.0239  0.0130 -0.3499
   16DMF     C3  673   0.960  -0.108   3.504 -0.2129  0.6490  0.8161
   16DMF     O1  674   0.868  -0.185   3.518  0.1822  0.3611 -1.0093
   16DMF     H1  675   0.776   0.142   3.445  0.8440 -0.2702 -0.5708
   16DMF     H2  676   0.835   0.176   3.613  3.1967  0.7640 -0.6656
   16DMF     H3  677   0.741   0.026   3.572  0.7496 -0.6296 -1.1897
   16DMF     H4  678   1.035   0.213   3.536 -0.7789 -0.7954  1.1924
   16DMF     H5  679   1.105   0.116   3.397  1.1738 -0.9627  0.0503
   16DMF     H6  680   1.150   0.081   3.563 -1.1709 -3.0193 -0.3081
   16DMF     H7  681   1.061  -0.138   3.470 -0.4028  1.6124 -0.6548
   17DMF     C1  682   0.114   3.312   3.069  0.0361  0.5236  0.1437
   17DMF     N1  683   0.134   3.321   3.219 -0.3454 -0.1725  0.0573
   17DMF     C2  684   0.253   3.397   3.266  0.6038 -0.2443  0.5590
   17DMF     C3  685   0.045   3.265   3.310  0.1668  1.3139 -0.0072
   17DMF     O1  686  -0.054   3.210   3.263  0.0296 -0.7148 -0.1227
   17DMF     H1  687   0.026   3.370   3.038  0.0426  0.2291 -0.4344
   17DMF     H2  688   0.090   3.207   3.051 -0.1020  0.3444  1.3425
   17DMF     H3  689   0.211   3.336   3.022  0.2318  1.7922  1.1674
   17DMF     H4  690   0.271   3.474   3.190  0.5448 -2.0906 -1.3925
   17DMF     H5  691   0.333   3.321   3.269 -0.2137 -1.1639 -0.4973
   17DMF     H6  692   0.241   3.442   3.365  0.3487  2.2458 -0.5717
   17DMF     H7  693   0.080   3.261   3.415 -1.4773 -2.6078  0.4576
   18DMF     C1  694   1.171   0.811   0.416  0.2564  0.2583 -0.3736
   18DMF     N1  695   1.277   0.724   0.364 -0.4148 -1.0140 -0.2581
   18DMF     C2  696   1.407   0.776   0.332  0.3389  0.4642 -0.7513
   18DMF     C3  697   1.249   0.591   0.323 -0.0737  0.8883  0.0635
   18DMF     O1  698   1.135   0.537   0.326  0.1203  0.1156  0.4787
   18DMF     H1  699   1.163   0.909   0.368  1.5449  0.9400  0.7780
   18DMF     H2  700   1.204   0.833   0.518 -0.2447 -0.6579 -0.0133
   18DMF     H3  701   1.068   0.774   0.402  0.8166 -0.9183 -1.4752
   18DMF     H4  702   1.493   0.734   0.387  0.2068  1.0429 -0.0905
   18DMF     H5  703   1.410   0.885   0.348 -1.0288  0.3751  0.2212
   18DMF     H6  704   1.423   0.766   0.224 -0.2328 -1.2585 -0.6982
   18DMF     H7  705   1.339   0.533   0.294  0.2255  1.9219 -1.1376
   19DMF     C1  706   1.427   3.170   1.022 -0.5400 -0.0451 -0.1797
   19DMF     N1  707   1.337   3.178   1.145  0.5708 -0.1415  0.5644
   19DMF     C2  708   1.276   3.060   1.204  0.4391 -0.1019  0.4495
   19DMF     C3  709   1.296   3.298   1.202 -0.2102  0.7955  0.2158
   19DMF     O1  710   1.331   3.403   1.150  0.3631 -0.0329 -0.3103
   19DMF     H1  711   1.366   3.164   0.931 -1.7070  2.1330  0.4255
   19DMF     H2  712   1.494   3.084   1.026  1.7845  1.6201 -1.6853
   19DMF     H3  713   1.488   3.261   1.013 -2.0533  1.1034  0.9634
   19DMF     H4  714   1.167   3.076   1.206  0.5406  0.6572  0.2244
   19DMF     H5  715   1.315   3.048   1.305  0.6519  0.7290  0.4699
   19DMF     H6  716   1.304   2.978   1.136  1.8163  0.7865 -0.0709
   19DMF     H7  717   1.225   3.283   1.285 -1.7995 -1.4733 -1.5001
   20DMF     C1  718   1.714   0.399   0.183 -0.1276 -0.0641  0.6193
   20DMF     N1  719   1.651   0.299   0.101 -0.0441  0.7261  0.2334
   20DMF     C2  720   1.504   0.280   0.113  0.0521  0.1134  0.3164
   20DMF     C3  721   1.725   0.210   0.024  0.2129 -0.2874  0.4879
   20DMF     O1  722   1.845   0.226   0.024  0.3109  0.0009  0.3569
   20DMF     H1  723   1.645   0.438   0.258 -0.5591  2.6238 -1.1090
   20DMF     H2  724   1.765   0.466   0.114  0.7948 -0.0676  1.2853
   20DMF     H3  725   1.797   0.352   0.237  1.9530  1.6548 -0.9945
   20DMF     H4  726   1.478   0.300   0.218  0.4770 -0.3917  0.5215
   20DMF     H5  727   1.476   0.175   0.098 -0.6733  0.0032  2.3324
   20DMF     H6  728   1.451   0.350   0.048 -0.8556  1.0110  2.0004
   20DMF     H7  729   1.665   0.126  -0.015  1.8514 -1.5887  0.7477
   21DMF     C1  730   3.182   0.412   0.190 -0.7027  0.5558 -0.0854
   21DMF     N1  731   3.049   0.350   0.158 -0.4340 -0.1712  0.7485
   21DMF     C2  732   3.049   0.270   0.036 -0.5584 -0.5403 -0.4757
   21DMF     C3  733   2.936   0.359   0.242 -0.8271 -0.0917 -0.3973
   21DMF     O1  734   2.930   0.438   0.337 -0.0725 -0.0616 -0.3321
   21DMF     H1  735   3.213   0.472   0.103  1.8476  0.8998  1.0092
   21DMF     H2  736   3.254   0.333   0.215  0.0766  1.2503 -0.1081
   21DMF     H3  737   3.175   0.479   0.276 -0.9624  2.0000 -1.2032
   21DMF     H4  738   3.088   0.168   0.052  1.9102  0.2454 -1.1622
   21DMF     H5  739   3.112   0.318  -0.040 -2.1352  3.5167  0.6757
   21DMF     H6  740   2.947   0.254  -0.000  0.2214 -2.7274 -1.8315
   21DMF     H7  741   2.854   0.294   0.205 -1.5396  0.8931 -0.5759
   22DMF     C1  742   1.267   0.302   1.556  0.0351  0.3542  0.0203
   22DMF     N1  743   1.254   0.400   1.450 -0.0112  0.5910 -0.4053
   22DMF     C2  744   1.196   0.357   1.318 -0.3864 -0.1390  0.1188
   22DMF     C3  745   1.284   0.537   1.481  0.3690  0.3161  0.1523
   22DMF     O1  746   1.326   0.580   1.586 -0.5149  0.4436 -0.6939
   22DMF     H1  747   1.372   0.301   1.587 -0.1215  0.5641  0.5617
   22DMF     H2  748   1.244   0.198   1.530 -0.9524  0.1344  1.7240
   22DMF     H3  749   1.210   0.342   1.640  1.8318  3.2488 -0.0793
   22DMF     H4  750   1.241   0.262   1.285 -0.8491 -1.2221  2.4895
   22DMF     H5  751   1.219   0.442   1.253 -1.0720 -0.2262 -0.2381
   22DMF     H6  752   1.088   0.341   1.325 -0.5968 -0.6367 -3.5648
   22DMF     H7  753   1.276   0.601   1.391 -0.3640 -1.4089 -1.0372
   23DMF     C1  754   2.798   2.576   3.392  0.3375  0.0271 -0.4860
   23DMF     N1  755   2.774   2.530   3.527  0.6281 -0.2221 -0.4749
   23DMF     C2  756   2.666   2.435   3.549 -0.6583 -0.3532 -0.3618
   23DMF     C3  757   2.855   2.576   3.630  0.1618  0.1007  0.2556
   23DMF     O1  758   2.944   2.658   3.610 -0.0995  0.0368 -0.0979
   23DMF     H1  759   2.893   2.531   3.359  0.7897 -2.0009  3.2541
   23DMF     H2  760   2.811   2.685   3.392 -0.9365  0.2109  2.3232
   23DMF     H3  761   2.720   2.548   3.320 -1.6429  2.3656  0.7015
   23DMF     H4  762   2.634   2.379   3.461 -2.9626  1.9999 -1.0624
   23DMF     H5  763   2.593   2.492   3.607 -3.2268 -2.6331 -1.2678
   23DMF     H6  764   2.689   2.349   3.614  0.2120 -1.1348 -1.6832
   23DMF     H7  765   2.833   2.535   3.731 -0.5634  1.5072  0.6889
   24DMF     C1  766   1.298   1.026   2.545 -0.5350 -0.1204 -0.4362
   24DMF     N1  767   1.153   1.026   2.577  0.2815 -0.2182 -0.1254
   24DMF     C2  768   1.091   0.904   2.615 -0.6142  0.3085  0.2650
   24DMF     C3  769   1.084   1.145   2.588  0.4587  0.1003 -0.2115
   24DMF     O1  770   1.139   1.259   2.583 -0.1890  0.3593  0.3637
   24DMF     H1  771   1.320   0.924   2.513 -0.4590 -0.5901  1.0715
   24DMF     H2  772   1.364   1.040   2.631 -0.8367  0.2220 -0.2562
   24DMF     H3  773   1.320   1.096   2.464  2.9805 -0.3736  0.2179
   24DMF     H4  774   1.084   0.844   2.523 -0.3380 -0.0089  0.4496
   24DMF     H5  775   0.992   0.917   2.659 -0.7715 -1.0824  0.3329
   24DMF     H6  776   1.151   0.854   2.693  0.0159  0.2799 -0.2285
   24DMF     H7  777   0.975   1.128   2.599  0.3465  0.1909 -1.1366
   25DMF     C1  778   3.355   2.546   2.666 -0.1610 -0.0896  0.6932
   25DMF     N1  779   3.443   2.436   2.728 -0.4894 -0.4234 -0.0480
   25DMF     C2  780   3.475   2.444   2.872  0.5191 -0.4676  0.2378
   25DMF     C3  781   3.522   2.345   2.648 -0.1811  0.6536 -0.3273
   25DMF     O1  782   3.499   2.331   2.529 -0.6902 -0.3135  0.1256
   25DMF     H1  783   3.280   2.595   2.729  1.1352  2.8649  0.0404
   25DMF     H2  784   3.315   2.525   2.566  1.0174 -0.6838  0.3286
   25DMF     H3  785   3.425   2.628   2.642 -1.4191  0.6303 -0.6179
   25DMF     H4  786   3.544   2.363   2.899  0.3151 -1.0694 -0.9909
   25DMF     H5  787   3.378   2.431   2.921  0.0621  1.0322 -0.2232
   25DMF     H6  788   3.503   2.546   2.902 -2.1334  0.5170 -0.5177
   25DMF     H7  789   3.598   2.291   2.707  0.3020 -0.9662 -2.3899
   26DMF     C1  790   0.551   1.208   1.260 -0.0463 -0.2280 -0.1176
   26DMF     N1  791   0.702   1.189   1.227  0.1492 -0.3637 -0.3683
   26DMF     C2  792   0.780   1.304   1.194 -0.4259  0.2171 -0.1248
   26DMF     C3  793   0.756   1.063   1.251  0.2822  0.6110  0.1273
   26DMF     O1  794   0.686   0.961   1.267 -0.1612  0.1510 -0.1574
   26DMF     H1  795   0.552   1.303   1.315  0.5513 -0.7559  0.7854
   26DMF     H2  796   0.517   1.128   1.327  1.3100  0.3002  1.2188
   26DMF     H3  797   0.501   1.199   1.163  0.3640  1.0896 -0.4719
   26DMF     H4  798   0.724   1.358   1.116 -0.5930 -2.0750 -1.6699
   26DMF     H5  799   0.881   1.277   1.160 -0.2159 -0.0921  0.7518
   26DMF     H6  800   0.797   1.368   1.281  0.3856  0.2644 -0.3154
   26DMF     H7  801   0.867   1.068   1.249  0.2197  1.9032 -0.7378
   27DMF     C1  802   3.174   3.161   3.596  0.3244  0.3462  0.6417
   27DMF     N1  803   3.081   3.059   3.535  0.1849  0.0931  0.0377
   27DMF     C2  804   3.082   3.044   3.392  0.9586 -0.4328 -0.0458
   27DMF     C3  805   2.989   2.986   3.618  0.7254 -0.6525  0.1043
   27DMF     O1  806   3.004   3.004   3.740 -0.0397  0.0031 -0.4214
   27DMF     H1  807   3.122   3.208   3.681  1.0813  2.0294  0.1758
   27DMF     H2  808   3.200   3.239   3.524  1.0831 -1.6938 -1.3279
   27DMF     H3  809   3.255   3.106   3.645 -0.9617 -3.6189 -1.4599
   27DMF     H4  810   3.061   2.940   3.365  1.3082  0.0072 -2.1369
   27DMF     H5  811   3.180   3.066   3.347 -0.1722  2.8636 -1.0588
   27DMF     H6  812   3.000   3.107   3.355 -0.9350 -2.8674 -0.0923
   27DMF     H7  813   2.915   2.928   3.560 -0.5801 -0.8642  1.9446
   28DMF     C1  814   2.242   2.109   3.472  0.1213  0.6546 -0.1120
   28DMF     N1  815   2.291   1.972   3.505  0.7567 -0.2912  0.3335
   28DMF     C2  816   2.402   1.956   3.598  0.1604 -0.2264 -0.6459
   28DMF     C3  817   2.219   1.856   3.463  0.2007 -0.5806  0.3154
   28DMF     O1  818   2.129   1.865   3.383  0.1258  0.0409 -0.2296
   28DMF     H1  819   2.302   2.184   3.526 -1.2032  2.5787 -1.2739
   28DMF     H2  820   2.142   2.115   3.515  0.2787 -0.9476  0.5147
   28DMF     H3  821   2.255   2.138   3.367 -0.2758  1.6324  0.1025
   28DMF     H4  822   2.437   2.059   3.611 -0.3033 -0.0737 -0.6115
   28DMF     H5  823   2.471   1.874   3.576 -1.1705 -1.5948  0.1885
   28DMF     H6  824   2.359   1.929   3.696 -0.8398 -0.0349 -1.0313
   28DMF     H7  825   2.264   1.764   3.505 -0.2475 -0.8349  0.2457
   29DMF     C1  826   0.101   1.861   0.974  0.2805 -0.0953  0.4280
   29DMF     N1  827   0.179   1.957   1.058  0.4871  0.1236 -0.8084
   29DMF     C2  828   0.283   2.043   0.998 -0.1811 -0.1434 -0.5767
   29DMF     C3  829   0.145   1.985   1.190  0.8153  0.1756 -0.0292
   29DMF     O1  830   0.054   1.926   1.250 -0.0342 -0.0029  0.2224
   29DMF     H1  831   0.109   1.873   0.865 -0.3353  0.1551  0.4025
   29DMF     H2  832  -0.007   1.871   0.991  0.3965 -0.1218  1.1654
   29DMF     H3  833   0.137   1.760   0.993 -0.0001 -0.4735 -0.9745
   29DMF     H4  834   0.255   2.145   0.970  2.5932  0.5812 -0.8262
   29DMF     H5  835   0.320   1.992   0.908 -0.0199  0.1312 -0.6665
   29DMF     H6  836   0.368   2.054   1.066 -0.7888 -0.4703  0.2329
   29DMF     H7  837   0.201   2.069   1.236 -2.3092  1.1690  2.1264
   30DMF     C1  838   1.652   1.587   2.916 -0.3518 -0.4819 -0.5275
   30DMF     N1  839   1.533   1.509   2.941  0.4554 -0.8718  0.4715
   30DMF     C2  840   1.511   1.441   3.076 -0.3804  0.1135  0.8933
   30DMF     C3  841   1.445   1.482   2.837  0.1287 -0.3635 -0.0147
   30DMF     O1  842   1.457   1.518   2.721  0.6393  0.3279  0.4128
   30DMF     H1  843   1.627   1.665   2.843 -1.7218 -0.0235  0.4173
   30DMF     H2  844   1.727   1.517   2.876  2.6817  0.9037  2.4360
   30DMF     H3  845   1.693   1.634   3.006  1.0775 -1.2031 -0.7859
   30DMF     H4  846   1.594   1.462   3.144 -1.4721  2.3963  1.5938
   30DMF     H5  847   1.520   1.334   3.054  0.1336 -0.0734  1.9518
   30DMF     H6  848   1.416   1.467   3.126 -1.8263 -1.6591 -0.8571
   30DMF     H7  849   1.368   1.406   2.862  0.9653 -0.7027  1.5569
   31DMF     C1  850   1.969   1.241   3.131  0.1464  0.3630 -0.7546
   31DMF     N1  851   2.056   1.300   3.029  0.2870  0.0787  0.3236
   31DMF     C2  852   2.151   1.213   2.959  0.2929  0.3080  0.8246
   31DMF     C3  853   2.043   1.441   2.991  0.1634  0.3182  0.3038
   31DMF     O1  854   1.951   1.507   3.037 -0.0648  0.2519 -0.6062
   31DMF     H1  855   1.948   1.319   3.207 -1.3174  0.5189 -1.2979
   31DMF     H2  856   2.017   1.156   3.181  0.8768 -0.0932 -2.2245
   31DMF     H3  857   1.870   1.221   3.088  0.2720  0.9136 -1.3102
   31DMF     H4  858   2.136   1.231   2.852 -0.7641  1.2089  1.1152
   31DMF     H5  859   2.124   1.109   2.982  0.1901  0.0272 -0.5695
   31DMF     H6  860   2.255   1.227   2.992  0.4555  1.4674 -0.1895
   31DMF     H7  861   2.114   1.482   2.918 -0.7434 -0.7648 -1.2145
   32DMF     C1  862   1.928   3.142   0.635  0.9611 -0.0728 -0.0602
   32DMF     N1  863   1.830   3.128   0.746  0.6141  0.4577 -0.6125
   32DMF     C2  864   1.744   3.244   0.764  0.8159 -0.1105  0.2113
   32DMF     C3  865   1.829   3.020   0.835  0.0095 -0.1058 -0.8458
   32DMF     O1  866   1.922   2.945   0.844 -0.8491  0.4621 -0.1089
   32DMF     H1  867   1.909   3.224   0.565 -2.0284 -1.3569 -0.8310
   32DMF     H2  868   1.905   3.061   0.564 -1.6771 -0.4354  1.1763
   32DMF     H3  869   2.033   3.129   0.666  0.2765 -2.0521  1.5658
   32DMF     H4  870   1.802   3.328   0.725 -0.1150 -0.0008 -0.9792
   32DMF     H5  871   1.715   3.267   0.868  0.8334 -0.3762  0.2757
   32DMF     H6  872   1.649   3.224   0.713  0.9511 -0.5087  0.1146
   32DMF     H7  873   1.742   3.014   0.903 -0.2476 -1.7850 -1.3126
   33DMF     C1  874   2.485   0.324   2.602  0.6008 -0.3024  1.2204
   33DMF     N1  875   2.619   0.299   2.644  0.0025  0.6376 -0.5756
   33DMF     C2  876   2.687   0.393   2.736 -0.3648 -0.3663 -0.7808
   33DMF     C3  877   2.666   0.161   2.629 -0.2183 -0.5513 -0.1818
   33DMF     O1  878   2.620   0.077   2.561 -0.4752 -0.0472 -0.0927
   33DMF     H1  879   2.422   0.248   2.651 -0.7393  0.4959  0.7634
   33DMF     H2  880   2.479   0.308   2.494  0.6921  1.2751  0.9769
   33DMF     H3  881   2.456   0.427   2.626  0.8025  0.1800 -0.5663
   33DMF     H4  882   2.781   0.343   2.760 -0.0133  0.6265 -0.0472
   33DMF     H5  883   2.620   0.406   2.822  0.1692  1.7775 -0.6567
   33DMF     H6  884   2.699   0.490   2.686  1.4354 -0.9779 -1.5638
   33DMF     H7  885   2.765   0.147   2.676 -0.5017 -0.0036  0.5878
   34DMF     C1  886   0.821   2.319   0.936 -0.5178 -0.2430 -0.2373
   34DMF     N1  887   0.748   2.246   1.053  0.7281 -0.3785  0.4253
   34DMF     C2  888   0.602   2.242   1.043 -0.1827  0.1483  0.3152
   34DMF     C3  889   0.815   2.189   1.166  0.5552 -0.4727 -0.5009
   34DMF     O1  890   0.937   2.176   1.182  0.0620  0.3899 -0.2871
   34DMF     H1  891   0.755   2.397   0.898 -0.0334 -0.0809 -0.7416
   34DMF     H2  892   0.821   2.246   0.854  1.8599 -1.8422  1.1223
   34DMF     H3  893   0.925   2.337   0.965 -0.9017  1.4665  0.1515
   34DMF     H4  894   0.564   2.182   1.126  0.2460 -1.8190 -0.8778
   34DMF     H5  895   0.572   2.196   0.947  0.5846  1.0060 -0.3449
   34DMF     H6  896   0.568   2.346   1.043  1.5278  0.7213  0.5323
   34DMF     H7  897   0.754   2.133   1.240  0.4212 -0.9568 -0.9648
   35DMF     C1  898   1.050   3.145   0.934  0.0543  1.0523 -0.0552
   35DMF     N1  899   0.973   3.064   0.838 -0.0805  0.2495  0.1052
   35DMF     C2  900   0.942   2.924   0.875 -0.0877 -0.0342  0.0892
   35DMF     C3  901   0.944   3.113   0.708  0.4416  0.5668 -0.5661
   35DMF     O1  902   0.966   3.229   0.683 -0.0863  0.2256 -0.2075
   35DMF     H1  903   1.156   3.118   0.934  0.3305  2.1349 -1.0190
   35DMF     H2  904   1.012   3.134   1.036 -0.0141 -0.0108 -0.1817
   35DMF     H3  905   1.038   3.253   0.922  2.6399  1.2925 -0.8315
   35DMF     H4  906   0.886   2.872   0.796 -1.2376  0.4880  0.5444
   35DMF     H5  907   0.884   2.925   0.968  0.0335 -1.4710  0.1959
   35DMF     H6  908   1.029   2.864   0.904  0.2669 -0.4160 -1.7221
   35DMF     H7  909   0.897   3.046   0.634 -0.1982  1.6266 -1.1428
   36DMF     C1  910   1.962   0.182   1.434  0.4777 -0.0897 -0.5080
   36DMF     N1  911   1.966   0.229   1.292 -0.5686  0.5112  0.7804
   36DMF     C2  912   1.907   0.145   1.188  0.0330  0.2766  1.1746
   36DMF     C3  913   2.058   0.334   1.253 -0.4121  0.2673 -0.9529
   36DMF     O1  914   2.137   0.375   1.336 -0.7147 -0.1351  0.1309
   36DMF     H1  915   1.866   0.130   1.444 -0.0054  0.2124 -3.0741
   36DMF     H2  916   1.964   0.272   1.498  0.5320 -1.1041  0.9382
   36DMF     H3  917   2.044   0.117   1.466  1.1848  1.7503  1.5935
   36DMF     H4  918   1.895   0.044   1.230 -2.2909  0.5758  1.2724
   36DMF     H5  919   1.974   0.139   1.101  0.1821  2.1690  1.1484
   36DMF     H6  920   1.804   0.171   1.161  0.2834 -0.8944 -1.0641
   36DMF     H7  921   2.036   0.374   1.153  0.4781  0.1071 -1.2168
   37DMF     C1  922   1.900   3.237   3.622  0.1353  0.3915 -0.4833
   37DMF     N1  923   1.939   3.306   3.749  0.9986  0.1647 -0.3752
   37DMF     C2  924   2.019   3.428   3.734  0.8016  0.0256  0.5030
   37DMF     C3  925   1.862   3.286   3.870  0.1094 -0.2624  0.9133
   37DMF     O1  926   1.781   3.195   3.882  0.3839  0.4757 -0.2571
   37DMF     H1  927   1.908   3.129   3.639 -1.7141 -0.2249 -3.1135
   37DMF     H2  928   1.961   3.272   3.538  2.2034  1.4396  1.4067
   37DMF     H3  929   1.791   3.252   3.617 -0.2739 -2.2277 -0.3287
   37DMF     H4  930   2.126   3.403   3.729  0.5465 -0.6024 -3.6886
   37DMF     H5  931   2.010   3.491   3.824 -0.0733 -0.5595  0.8350
   37DMF     H6  932   1.994   3.488   3.646 -0.0135 -0.6046  0.3047
   37DMF     H7  933   1.888   3.358   3.950  0.1091 -0.7903  1.3967
   38DMF     C1  934   1.000   1.404   1.498  0.0732  0.9934 -0.2494
   38DMF     N1  935   0.864   1.363   1.541 -0.2862  1.1925  0.0759
   38DMF     C2  936   0.763   1.460   1.572 -1.0268 -0.4657 -0.8610
   38DMF     C3  937   0.832   1.226   1.568  0.2047 -0.5816  0.2594
   38DMF     O1  938   0.907   1.133   1.546 -0.4615  0.9287  0.5487
   38DMF     H1  939   0.995   1.490   1.431 -2.1971  0.6726 -0.5153
   38DMF     H2  940   1.047   1.317   1.450  0.4302  1.1732 -0.2261
   38DMF     H3  941   1.062   1.430   1.585  1.8629  0.3033 -1.2935
   38DMF     H4  942   0.701   1.431   1.658 -1.3060  2.1350 -0.1499
   38DMF     H5  943   0.695   1.469   1.486  1.0935  0.5085 -2.5035
   38DMF     H6  944   0.817   1.549   1.608 -1.9813  0.0140 -0.5957
   38DMF     H7  945   0.731   1.215   1.611 -0.0817 -1.3145 -0.6004
   39DMF     C1  946   0.897   2.852   1.574  0.8532 -0.6259  0.3235
   39DMF     N1  947   0.746   2.856   1.572  0.7682 -0.0807  0.0784
   39DMF     C2  948   0.677   2.727   1.538  0.1832  0.7577  0.4571
   39DMF     C3  949   0.681   2.977   1.582 -0.1436 -0.2395 -0.1664
   39DMF     O1  950   0.751   3.076   1.588 -0.6509 -0.7522  0.3472
   39DMF     H1  951   0.935   2.891   1.479 -0.7844  0.4620  0.0988
   39DMF     H2  952   0.925   2.746   1.578  2.1701 -0.2514  1.2839
   39DMF     H3  953   0.937   2.896   1.666  0.4978 -0.1063  0.2274
   39DMF     H4  954   0.643   2.675   1.628 -0.3910 -1.0281 -0.7677
   39DMF     H5  955   0.746   2.663   1.482 -0.6691  1.4468 -1.4051
   39DMF     H6  956   0.588   2.744   1.476 -0.1556 -0.4244  0.6061
   39DMF     H7  957   0.572   2.977   1.568 -0.4712  0.5480  2.1035
   40DMF     C1  958   1.774   0.755   2.732 -0.4940  0.3901  0.4451
   40DMF     N1  959   1.807   0.624   2.689  0.5570  0.1659  0.0238
   40DMF     C2  960   1.748   0.578   2.565 -0.0069  0.7661  0.5864
   40DMF     C3  961   1.848   0.528   2.782  0.1796 -0.0086 -0.0168
   40DMF     O1  962   1.892   0.559   2.891 -0.4887 -0.4906 -0.0503
   40DMF     H1  963   1.864   0.800   2.775  0.2814 -0.2233 -0.5038
   40DMF     H2  964   1.707   0.742   2.818 -0.7164  2.9293  0.6980
   40DMF     H3  965   1.725   0.808   2.649  0.0100 -1.4257 -1.0789
   40DMF     H4  966   1.705   0.658   2.503  0.2145 -0.1218 -0.7114
   40DMF     H5  967   1.660   0.518   2.592  1.2741 -1.6269 -0.4842
   40DMF     H6  968   1.809   0.503   2.515 -0.1054  1.0835 -0.0132
   40DMF     H7  969   1.850   0.426   2.740  0.3012  0.2180 -0.5711
   41DMF     C1  970   1.851   2.855   3.098  0.2041  0.2046  0.4623
   41DMF     N1  971   1.754   2.940   3.177  0.6671  0.1288  0.1556
   41DMF     C2  972   1.599   2.917   3.165  0.6043  0.0510 -0.2209
   41DMF     C3  973   1.800   3.018   3.287 -0.8081  0.2423 -0.5384
   41DMF     O1  974   1.917   3.024   3.313 -0.3154 -0.0712 -0.3492
   41DMF     H1  975   1.823   2.862   2.992  2.6398  2.1319 -0.0979
   41DMF     H2  976   1.838   2.751   3.129  1.3800 -0.0232  0.2335
   41DMF     H3  977   1.957   2.883   3.103  0.5754 -0.6037 -2.0764
   41DMF     H4  978   1.575   2.810   3.172  1.4670 -0.0019  2.4499
   41DMF     H5  979   1.574   2.949   3.063 -1.0047 -1.4639 -0.3231
   41DMF     H6  980   1.537   2.970   3.238  0.7018 -1.9723  1.3608
   41DMF     H7  981   1.723   3.080   3.335 -0.5437  0.7063 -0.7135
   42DMF     C1  982   0.687   1.474   3.313  0.5445 -0.0626 -0.0470
   42DMF     N1  983   0.834   1.492   3.280 -0.0299  0.1462 -0.2572
   42DMF     C2  984   0.879   1.585   3.179 -0.0358 -0.1915  0.7759
   42DMF     C3  985   0.925   1.436   3.383 -0.0915  0.3374 -0.8085
   42DMF     O1  986   0.883   1.365   3.474 -0.1645 -0.1678 -0.1217
   42DMF     H1  987   0.630   1.513   3.227 -1.1362  0.5750  1.3285
   42DMF     H2  988   0.662   1.534   3.401 -2.7892 -0.2036 -0.8270
   42DMF     H3  989   0.651   1.371   3.327 -1.5844  0.3176 -2.2460
   42DMF     H4  990   0.811   1.671   3.183  0.1505 -0.0595  1.1089
   42DMF     H5  991   0.883   1.549   3.075  0.1800  1.3077  0.2518
   42DMF     H6  992   0.980   1.620   3.203 -0.0723 -0.3249  1.1287
   42DMF     H7  993   1.031   1.465   3.370  0.5525 -0.5212  2.2170
   43DMF     C1  994   2.101   1.876   2.277 -0.4590  0.2081  0.4666
   43DMF     N1  995   2.180   1.994   2.328 -0.4078  0.0443 -0.4146
   43DMF     C2  996   2.282   2.055   2.239  0.4227  0.0987 -0.0951
   43DMF     C3  997   2.156   2.051   2.451  0.0968 -0.5652  0.1491
   43DMF     O1  998   2.076   2.007   2.532  0.7941  0.2437 -0.3214
   43DMF     H1  999   2.013   1.852   2.338  0.1901 -2.4377  0.4366
   43DMF     H2 1000   2.168   1.789   2.268  1.2231  1.5581 -0.2792
   43DMF     H3 1001   2.073   1.901   2.175  1.3567  2.3747  0.4613
   43DMF     H4 1002   2.252   2.156   2.209  2.6240 -0.3866 -4.2886
   43DMF     H5 1003   2.298   1.989   2.153  1.2163  1.2458 -0.8348
   43DMF     H6 1004   2.378   2.068   2.290  1.0914  0.4060 -1.4110
   43DMF     H7 1005   2.215   2.142   2.471 -0.2866 -0.6031  1.4909
   44DMF     C1 1006   3.347   2.881   0.370  0.8874  0.0231 -0.2219
   44DMF     N1 1007   3.239   2.951   0.282 -0.3942  0.0101 -0.5585
   44DMF     C2 1008   3.104   2.965   0.334 -0.2611 -0.4575  0.0660
   44DMF     C3 1009   3.288   3.043   0.187 -0.3092 -0.0256  0.5835
   44DMF     O1 1010   3.408   3.040   0.160  0.3322  0.2817  0.8147
   44DMF     H1 1011   3.411   2.828   0.298 -0.7859 -0.8209 -1.1029
   44DMF     H2 1012   3.299   2.819   0.446 -0.7787  1.9556  0.3409
   44DMF     H3 1013   3.416   2.956   0.411  0.8767  1.3883 -2.5596
   44DMF     H4 1014   3.074   3.071   0.330 -0.8099 -0.5904  0.7426
   44DMF     H5 1015   3.094   2.934   0.438  2.3412 -0.9619  0.1992
   44DMF     H6 1016   3.034   2.904   0.276 -0.2744 -0.4116  0.0338
   44DMF     H7 1017   3.219   3.125   0.158 -0.5703 -0.7588 -0.8995
   45DMF     C1 1018   0.104   0.033   2.647  0.2807 -0.0995  0.6747
   45DMF     N1 1019   0.216  -0.047   2.618 -0.5415  0.2315  0.2008
   45DMF     C2 1020   0.335   0.027   2.580 -0.0241  0.3722  0.8280
   45DMF     C3 1021   0.201  -0.185   2.595  0.0380  0.2565  1.6575
   45DMF     O1 1022   0.096  -0.245   2.627 -0.1455  0.2263  0.1825
   45DMF     H1 1023   0.068   0.016   2.749  2.3545  0.4137  1.5342
   45DMF     H2 1024   0.019   0.021   2.578  0.9691  2.2559 -0.6570
   45DMF     H3 1025   0.135   0.138   2.639 -0.2598  0.2576  3.0522
   45DMF     H4 1026   0.360   0.100   2.658  0.0641  2.2071 -0.8928
   45DMF     H5 1027   0.309   0.077   2.486 -2.6385 -2.4559 -0.0407
   45DMF     H6 1028   0.423  -0.037   2.568 -0.4639 -0.0766 -0.0006
   45DMF     H7 1029   0.295  -0.222   2.551 -0.1130  2.1524 -0.3612
   46DMF     C1 1030   0.312   2.974   0.536 -0.0225  0.0904 -0.0357
   46DMF     N1 1031   0.280   2.999   0.391 -0.0615 -0.1611  0.6550
   46DMF     C2 1032   0.301   2.884   0.297 -0.2303  0.0434  0.1895
   46DMF     C3 1033   0.258   3.128   0.331  0.0387  0.2825  0.4912
   46DMF     O1 1034   0.239   3.227   0.403  0.3747 -0.1999  0.4839
   46DMF     H1 1035   0.419   2.951   0.540  0.0530  0.0560 -1.6729
   46DMF     H2 1036   0.244   2.899   0.577 -0.7895  0.3405 -0.8253
   46DMF     H3 1037   0.287   3.068   0.587 -0.0021 -0.0554  0.2383
   46DMF     H4 1038   0.261   2.789   0.334 -0.9060 -0.5892 -2.0549
   46DMF     H5 1039   0.410   2.882   0.280 -0.4182  0.2474 -1.1502
   46DMF     H6 1040   0.253   2.901   0.199  0.0417  0.6052  0.1496
   46DMF     H7 1041   0.261   3.129   0.221 -0.0737  1.1577  0.4949
   47DMF     C1 1042   2.169   2.929   3.746  0.1679 -0.8726 -0.0459
   47DMF     N1 1043   2.151   3.031   3.844 -1.1194 -0.1077 -0.2819
   47DMF     C2 1044   2.060   3.001   3.956  0.0044  0.0160 -0.1121
   47DMF     C3 1045   2.249   3.137   3.849  0.0383 -0.1646  0.3947
   47DMF     O1 1046   2.350   3.145   3.783  0.2098  0.1177 -0.2152
   47DMF     H1 1047   2.189   2.836   3.801  0.1187 -1.1571 -0.5014
   47DMF     H2 1048   2.265   2.935   3.693 -0.3090 -0.6131 -0.8891
   47DMF     H3 1049   2.077   2.908   3.689 -0.7715  0.0581  1.1048
   47DMF     H4 1050   2.101   2.920   4.017  0.8824 -0.9289 -1.9005
   47DMF     H5 1051   1.960   2.986   3.915  0.1751 -1.0445 -0.1384
   47DMF     H6 1052   2.061   3.089   4.022 -1.2476  0.2334 -0.3646
   47DMF     H7 1053   2.220   3.203   3.934  0.3721 -1.0011  1.1649
   48DMF     C1 1054   2.086   0.818   1.012 -1.1672 -0.6605 -0.8622
   48DMF     N1 1055   2.116   0.795   1.159 -0.8343  0.2738  0.1697
   48DMF     C2 1056   2.214   0.887   1.226 -0.6133  0.3850 -0.0229
   48DMF     C3 1057   2.056   0.696   1.227 -0.8994 -0.5070  0.8430
   48DMF     O1 1058   1.975   0.613   1.185 -0.6582 -0.0721 -0.0369
   48DMF     H1 1059   2.170   0.869   0.963  1.4927 -2.7874  1.2855
   48DMF     H2 1060   1.997   0.880   0.997  0.6913  1.8872 -1.9617
   48DMF     H3 1061   2.084   0.722   0.958  1.1386  0.4114 -2.9915
   48DMF     H4 1062   2.270   0.955   1.160  0.1119 -0.2594 -0.0842
   48DMF     H5 1063   2.292   0.834   1.282  0.7817  1.5959 -0.7646
   48DMF     H6 1064   2.167   0.941   1.309  1.5061 -0.9724  2.1599
   48DMF     H7 1065   2.098   0.689   1.329 -0.2642 -2.2171  0.4818
   49DMF     C1 1066   0.352   1.938   2.282  0.6005 -0.3710 -0.2436
   49DMF     N1 1067   0.369   2.054   2.384  0.3941  0.3840  0.0908
   49DMF     C2 1068   0.374   2.194   2.328  0.5724 -0.4612 -0.2479
   49DMF     C3 1069   0.355   2.030   2.521 -0.0241  0.1134 -0.4616
   49DMF     O1 1070   0.318   1.927   2.577  0.0644 -0.4104 -0.5730
   49DMF     H1 1071   0.249   1.902   2.289  0.8804 -0.9832  0.9354
   49DMF     H2 1072   0.413   1.858   2.326 -1.7907 -0.5055  3.0008
   49DMF     H3 1073   0.385   1.970   2.183  1.2087  1.2500  0.4717
   49DMF     H4 1074   0.273   2.232   2.312  1.7815  4.3755  2.5593
   49DMF     H5 1075   0.434   2.202   2.236  0.0856 -0.3691 -0.5606
   49DMF     H6 1076   0.420   2.257   2.405 -1.1989 -0.5977  0.9567
   49DMF     H7 1077   0.362   2.127   2.575 -2.0243  0.7906 -1.3353
   50DMF     C1 1078   1.650   3.369   1.280 -0.1207 -0.7979  0.4049
   50DMF     N1 1079   1.636   3.271   1.389 -0.5205 -0.1808  0.6718
   50DMF     C2 1080   1.647   3.126   1.358 -0.7357 -0.5073  0.2394
   50DMF     C3 1081   1.658   3.320   1.518 -0.5222 -0.1785  0.0078
   50DMF     O1 1082   1.658   3.442   1.542 -0.1339 -0.2309  0.5981
   50DMF     H1 1083   1.674   3.321   1.184 -1.0575  0.2722 -0.3858
   50DMF     H2 1084   1.714   3.454   1.307 -0.4274 -0.4795  0.1350
   50DMF     H3 1085   1.552   3.410   1.254  0.4560  0.5208  0.2305
   50DMF     H4 1086   1.567   3.094   1.289  0.4124  1.3541 -2.0056
   50DMF     H5 1087   1.628   3.065   1.447 -2.3817  0.2547  0.4301
   50DMF     H6 1088   1.741   3.086   1.317 -0.8760 -0.6962  0.0968
   50DMF     H7 1089   1.671   3.237   1.590 -0.8344  0.3908  0.7265
   51DMF     C1 1090   1.026   0.126   0.146 -1.1606  0.0062 -1.0662
   51DMF     N1 1091   1.073   0.154   0.282  0.1137 -0.2601 -0.5047
   51DMF     C2 1092   0.983   0.236   0.366 -0.7658 -0.0225 -0.6311
   51DMF     C3 1093   1.209   0.147   0.321 -0.0750 -0.3690 -0.3750
   51DMF     O1 1094   1.285   0.072   0.261 -0.0039 -0.3442  0.0738
   51DMF     H1 1095   0.917   0.138   0.134 -1.5693 -1.0796  1.2155
   51DMF     H2 1096   1.053   0.021   0.127 -2.0876 -0.5283  0.4455
   51DMF     H3 1097   1.071   0.199   0.079  0.7671  1.2951  1.5211
   51DMF     H4 1098   0.967   0.183   0.461  0.7373  0.6429  0.0062
   51DMF     H5 1099   0.886   0.261   0.322 -1.4172  0.2568  0.9102
   51DMF     H6 1100   1.022   0.337   0.382 -0.0876  0.0587 -2.7400
   51DMF     H7 1101   1.236   0.209   0.408  1.9043 -0.8331 -0.6346
   52DMF     C1 1102   1.954   2.444   2.222  0.6659  0.5934 -0.4873
   52DMF     N1 1103   1.881   2.351   2.316  0.2585 -0.0294 -0.4571
   52DMF     C2 1104   1.862   2.208   2.271 -0.8671 -0.3554 -0.7140
   52DMF     C3 1105   1.780   2.401   2.399 -0.0491  0.6325 -0.3808
   52DMF     O1 1106   1.762   2.523   2.414  0.3326  0.0815  0.7428
   52DMF     H1 1107   1.884   2.476   2.143  0.4316  1.1713 -0.0481
   52DMF     H2 1108   2.046   2.395   2.190  0.2813 -1.8915  2.0243
   52DMF     H3 1109   1.983   2.528   2.286 -0.0547 -0.0692  0.7301
   52DMF     H4 1110   1.953   2.167   2.225 -1.2839 -0.1685 -1.7148
   52DMF     H5 1111   1.778   2.202   2.201 -1.2615 -0.6140 -0.2143
   52DMF     H6 1112   1.843   2.140   2.354  2.4242 -1.3450 -0.6944
   52DMF     H7 1113   1.718   2.315   2.432  0.0959  0.0870 -1.5230
   53DMF     C1 1114   2.778   1.349   0.701 -0.3079 -0.1026 -0.4288
   53DMF     N1 1115   2.822   1.433   0.815  0.0425 -0.1271 -0.3966
   53DMF     C2 1116   2.968   1.433   0.861  0.0598  0.3505 -0.4120
   53DMF     C3 1117   2.740   1.544   0.855  0.1518  0.7923 -0.0341
   53DMF     O1 1118   2.622   1.534   0.820  0.2847 -0.1666  0.2236
   53DMF     H1 1119   2.867   1.303   0.658 -2.4915 -2.9708 -2.0409
   53DMF     H2 1120   2.726   1.404   0.622 -0.4625 -0.4596 -0.5735
   53DMF     H3 1121   2.701   1.279   0.735 -0.5276  1.3824  2.3307
   53DMF     H4 1122   3.036   1.398   0.782  1.7703  0.1254  1.1140
   53DMF     H5 1123   2.976   1.350   0.932 -1.1186 -0.0264 -0.7126
   53DMF     H6 1124   2.988   1.529   0.910 -3.9644  0.1740  1.7950
   53DMF     H7 1125   2.785   1.622   0.919 -0.2663  1.3297 -0.3832
   54DMF     C1 1126   3.116   3.276   1.152 -0.2408 -0.6498  0.5900
   54DMF     N1 1127   3.161   3.414   1.161 -0.3899 -0.5550  0.6653
   54DMF     C2 1128   3.298   3.436   1.189  0.4685  0.5550  0.6597
   54DMF     C3 1129   3.070   3.522   1.175  0.2630  0.3858  1.1458
   54DMF     O1 1130   2.949   3.507   1.165  0.0207 -0.4518 -0.2473
   54DMF     H1 1131   3.050   3.254   1.236 -0.3741 -0.6995  0.4728
   54DMF     H2 1132   3.208   3.217   1.148  0.4218  0.4405 -1.6466
   54DMF     H3 1133   3.061   3.262   1.058  0.6306  0.0255 -0.0326
   54DMF     H4 1134   3.360   3.346   1.200  0.4122  0.4906  0.4357
   54DMF     H5 1135   3.318   3.508   1.269  1.1765  2.1776 -0.9393
   54DMF     H6 1136   3.335   3.489   1.101 -2.2016  3.1417  1.0277
   54DMF     H7 1137   3.121   3.619   1.186 -0.5386  0.7029  2.1250
   55DMF     C1 1138   0.810   0.573   2.690  0.0585 -0.2995  0.3226
   55DMF     N1 1139   0.865   0.446   2.651  0.3798  0.6135 -0.4485
   55DMF     C2 1140   0.986   0.452   2.568  0.2888 -0.0916  0.2797
   55DMF     C3 1141   0.795   0.325   2.663 -0.3423  0.0902  0.4531
   55DMF     O1 1142   0.698   0.311   2.730 -0.5952 -0.6226  0.3737
   55DMF     H1 1143   0.720   0.596   2.631  0.1674 -1.5635 -0.3538
   55DMF     H2 1144   0.876   0.658   2.672 -0.8775  0.1987 -0.7903
   55DMF     H3 1145   0.783   0.572   2.796 -0.0459  1.2456  0.3096
   55DMF     H4 1146   0.975   0.398   2.473  0.7305  2.3140 -1.1795
   55DMF     H5 1147   1.072   0.405   2.618 -0.2685  0.7872  2.1224
   55DMF     H6 1148   1.006   0.559   2.553  0.9268  0.1855  2.8111
   55DMF     H7 1149   0.841   0.241   2.608 -2.8727 -2.8247  2.5733
   56DMF     C1 1150   1.854   0.335   2.239 -1.0997 -0.5979 -0.0856
   56DMF     N1 1151   1.705   0.331   2.242 -0.3090 -0.1201 -0.4831
   56DMF     C2 1152   1.637   0.199   2.258 -0.5207  0.0592 -0.1777
   56DMF     C3 1153   1.636   0.452   2.246  0.7069  0.1837 -0.2063
   56DMF     O1 1154   1.688   0.562   2.253  0.0344 -0.2140 -1.2907
   56DMF     H1 1155   1.887   0.393   2.152  1.4194 -0.5349  0.8632
   56DMF     H2 1156   1.900   0.237   2.228 -0.1061  0.1678 -3.0104
   56DMF     H3 1157   1.892   0.378   2.333 -1.9395 -1.1752  0.5219
   56DMF     H4 1158   1.649   0.158   2.359  0.7966 -0.6620 -0.6220
   56DMF     H5 1159   1.688   0.135   2.185 -2.5213 -0.0458 -1.5101
   56DMF     H6 1160   1.530   0.196   2.233 -0.5208 -1.4623 -0.0443
   56DMF     H7 1161   1.527   0.439   2.258  0.8374  0.8038  1.8902
   57DMF     C1 1162   3.201   2.636   1.291  0.1556  0.1930 -0.1306
   57DMF     N1 1163   3.199   2.753   1.375 -0.4002  0.0112 -0.6832
   57DMF     C2 1164   3.279   2.868   1.328  0.0861  0.0978 -0.0934
   57DMF     C3 1165   3.122   2.764   1.490 -0.3444 -0.2453 -0.0302
   57DMF     O1 1166   3.047   2.677   1.530  0.2672 -0.4215  0.0118
   57DMF     H1 1167   3.138   2.560   1.339 -0.2460  1.7940  1.9720
   57DMF     H2 1168   3.306   2.606   1.285 -0.0450 -0.5437  0.0406
   57DMF     H3 1169   3.158   2.670   1.196  1.2818 -0.4122 -0.8617
   57DMF     H4 1170   3.225   2.961   1.346 -0.6971 -0.5328  0.9174
   57DMF     H5 1171   3.307   2.859   1.223 -2.7583  3.2498 -1.1793
   57DMF     H6 1172   3.375   2.865   1.381  0.7638  0.4153 -1.2885
   57DMF     H7 1173   3.129   2.866   1.532  0.9217 -1.2030  2.1628
   58DMF     C1 1174   2.385   0.574   0.407  0.4060  0.2898 -0.9415
   58DMF     N1 1175   2.470   0.581   0.278 -0.1399 -0.9569 -0.6297
   58DMF     C2 1176   2.572   0.479   0.256  0.3699 -0.4071  0.2194
   58DMF     C3 1177   2.458   0.695   0.195 -0.0049 -0.4184  0.4795
   58DMF     O1 1178   2.361   0.769   0.209  0.1472 -0.5108  0.0833
   58DMF     H1 1179   2.418   0.641   0.488 -0.3708 -0.5973  0.1252
   58DMF     H2 1180   2.394   0.474   0.451  1.1629 -0.3937 -2.6077
   58DMF     H3 1181   2.281   0.605   0.392  0.4780  0.9851 -0.0956
   58DMF     H4 1182   2.553   0.396   0.325  1.6843  0.6206  1.8439
   58DMF     H5 1183   2.672   0.515   0.280 -0.2308  1.4703 -0.0529
   58DMF     H6 1184   2.582   0.457   0.148 -1.7961  0.5920 -0.2015
   58DMF     H7 1185   2.537   0.708   0.119 -1.2933 -0.8122 -0.9762
   59DMF     C1 1186   1.464   2.872   2.727  0.1041  0.0796 -0.0060
   59DMF     N1 1187   1.511   2.954   2.611  0.2809  0.6864 -0.1466
   59DMF     C2 1188   1.632   2.899   2.544  0.2426 -0.1811  0.8181
   59DMF     C3 1189   1.463   3.086   2.588  0.0762  0.0708 -0.4879
   59DMF     O1 1190   1.379   3.127   2.665  0.1171 -0.1422  0.3055
   59DMF     H1 1191   1.455   2.944   2.809 -2.6228  1.3622 -1.3707
   59DMF     H2 1192   1.536   2.794   2.757 -1.9532 -0.9734  2.3156
   59DMF     H3 1193   1.369   2.820   2.710  0.1677  0.1365 -0.5400
   59DMF     H4 1194   1.700   2.984   2.530 -0.0372  0.2896  2.2408
   59DMF     H5 1195   1.619   2.844   2.450 -2.7765  0.9288  0.5397
   59DMF     H6 1196   1.690   2.838   2.615 -0.8961  0.2427  2.1374
   59DMF     H7 1197   1.496   3.136   2.495 -0.7129  2.2761  0.3864
   60DMF     C1 1198   0.312   2.881   3.430 -0.2825 -0.8828 -0.0895
   60DMF     N1 1199   0.261   2.940   3.301 -0.0349 -0.1067 -0.0787
   60DMF     C2 1200   0.126   2.903   3.254  0.3677  0.1345 -0.3356
   60DMF     C3 1201   0.337   3.030   3.229 -0.1161  0.2299 -0.0973
   60DMF     O1 1202   0.450   3.057   3.257  0.0929  0.0890  0.3953
   60DMF     H1 1203   0.403   2.823   3.410 -0.2515 -0.8801  0.0469
   60DMF     H2 1204   0.228   2.832   3.481 -0.0928 -1.4435 -0.3118
   60DMF     H3 1205   0.342   2.962   3.497  1.3461 -0.8809 -0.7957
   60DMF     H4 1206   0.055   2.901   3.337  0.4723  3.1586 -0.1129
   60DMF     H5 1207   0.126   2.802   3.211  0.8061  0.8998 -2.1808
   60DMF     H6 1208   0.089   2.976   3.181 -2.8558 -0.2111  0.8898
   60DMF     H7 1209   0.298   3.056   3.130 -0.5087 -2.0131 -0.5669
   61DMF     C1 1210   1.269   2.736   3.098  0.0726  0.1758  0.5413
   61DMF     N1 1211   1.280   2.753   3.248  0.3582 -0.5374 -0.1918
   61DMF     C2 1212   1.279   2.631   3.342  0.5372  0.0909  0.6605
   61DMF     C3 1213   1.300   2.878   3.305 -0.3029 -0.6428  0.2456
   61DMF     O1 1214   1.284   2.986   3.250  0.2015 -0.2786 -0.1309
   61DMF     H1 1215   1.347   2.798   3.052 -0.1069  1.5490  2.0350
   61DMF     H2 1216   1.171   2.776   3.073 -1.2991 -3.6488 -0.6187
   61DMF     H3 1217   1.265   2.626   3.089  0.6432 -0.1417  3.3971
   61DMF     H4 1218   1.340   2.553   3.295  0.4008  0.9412 -0.9773
   61DMF     H5 1219   1.175   2.597   3.345  0.7460 -0.7703 -1.1552
   61DMF     H6 1220   1.303   2.661   3.445 -0.4039 -0.4065  1.0269
   61DMF     H7 1221   1.325   2.875   3.413  0.2385 -0.9703  0.1132
   62DMF     C1 1222   3.268   1.364   1.091 -0.4697  0.1007  0.1313
   62DMF     N1 1223   3.414   1.350   1.108 -0.0026  0.6084 -0.1084
   62DMF     C2 1224   3.464   1.261   1.211  0.0298  0.5359 -0.0367
   62DMF     C3 1225   3.503   1.420   1.023  0.5532 -0.1914  0.2916
   62DMF     O1 1226   3.461   1.497   0.939 -0.1901  0.1401 -0.6985
   62DMF     H1 1227   3.239   1.458   1.139 -0.2728  1.0206 -1.5029
   62DMF     H2 1228   3.210   1.281   1.134 -0.2330  0.0730  0.3955
   62DMF     H3 1229   3.242   1.376   0.985 -1.0913  0.7145  0.3504
   62DMF     H4 1230   3.549   1.320   1.248 -0.1064  0.2978  0.6653
   62DMF     H5 1231   3.494   1.162   1.174 -1.9364  0.0875 -0.4454
   62DMF     H6 1232   3.393   1.242   1.292  0.9242 -1.3062  0.3577
   62DMF     H7 1233   3.607   1.418   1.059  0.8190  0.7968 -0.4246
   63DMF     C1 1234   2.493   1.990   2.986 -0.1317 -0.6183  0.4814
   63DMF     N1 1235   2.497   1.878   3.082  0.7534  0.2773 -0.2543
   63DMF     C2 1236   2.393   1.869   3.191  0.2075  0.3894 -0.6422
   63DMF     C3 1237   2.607   1.778   3.091  0.0542 -0.5906  0.0229
   63DMF     O1 1238   2.713   1.786   3.028 -0.4740 -0.3794 -0.3592
   63DMF     H1 1239   2.537   1.962   2.890 -0.2046 -1.8535  0.7969
   63DMF     H2 1240   2.557   2.071   3.023 -1.0911  0.1399  0.4971
   63DMF     H3 1241   2.393   2.027   2.960  1.1432  2.6116 -0.1232
   63DMF     H4 1242   2.299   1.890   3.140 -0.0461  1.2251  0.1489
   63DMF     H5 1243   2.424   1.936   3.272  1.1556  1.1400 -1.6125
   63DMF     H6 1244   2.393   1.768   3.232  1.1183  0.6696  0.0720
   63DMF     H7 1245   2.585   1.691   3.156  0.9502 -1.2603 -0.5536
   64DMF     C1 1246   3.232   1.427   2.236 -0.0139  0.0906 -1.3705
   64DMF     N1 1247   3.116   1.510   2.248  0.3087 -0.3595  0.2920
   64DMF     C2 1248   3.128   1.656   2.293 -0.0921  0.5497  0.3521
   64DMF     C3 1249   2.986   1.447   2.256 -0.1300  0.2977  0.3368
   64DMF     O1 1250   2.966   1.328   2.226 -0.2430 -0.4039  0.1962
   64DMF     H1 1251   3.324   1.484   2.252  0.7667 -1.1666 -1.3720
   64DMF     H2 1252   3.248   1.378   2.140  2.7232 -3.1323  0.6443
   64DMF     H3 1253   3.228   1.359   2.321  1.4414  1.2489 -0.3526
   64DMF     H4 1254   3.074   1.668   2.388 -1.9210  0.4190 -0.6633
   64DMF     H5 1255   3.080   1.724   2.222 -0.0181  2.8004  2.3826
   64DMF     H6 1256   3.234   1.675   2.313  0.3099  1.0886 -2.1574
   64DMF     H7 1257   2.905   1.521   2.274 -2.0794 -1.5567 -0.6408
   65DMF     C1 1258   2.262   2.250   2.859  0.0946  1.0628 -0.1208
   65DMF     N1 1259   2.384   2.278   2.778 -0.3430 -0.5105  0.4277
   65DMF     C2 1260   2.433   2.175   2.682  0.1043  0.9368 -0.2538
   65DMF     C3 1261   2.456   2.404   2.796 -0.3967 -1.0860 -0.0605
   65DMF     O1 1262   2.410   2.489   2.869 -0.3792 -0.3088 -0.2671
   65DMF     H1 1263   2.227   2.151   2.827  1.2054  0.3894  0.7014
   65DMF     H2 1264   2.190   2.331   2.843 -2.1258 -0.3437  2.4611
   65DMF     H3 1265   2.293   2.248   2.965  0.8021  2.1845 -0.2992
   65DMF     H4 1266   2.429   2.217   2.581  0.6935  1.3426 -0.1132
   65DMF     H5 1267   2.352   2.102   2.674  1.6952 -0.9412  0.4455
   65DMF     H6 1268   2.536   2.144   2.704 -0.9597 -2.7612 -0.0780
   65DMF     H7 1269   2.539   2.426   2.726 -0.5692  1.3255  0.4534
   66DMF     C1 1270   0.709   2.084   2.930  0.1037 -0.0606 -0.2604
   66DMF     N1 1271   0.764   2.115   2.798  0.5741  0.7173 -0.0988
   66DMF     C2 1272   0.694   2.055   2.679  0.9790 -0.0578  0.1026
   66DMF     C3 1273   0.887   2.182   2.776 -0.0079  0.3001 -0.4218
   66DMF     O1 1274   0.959   2.225   2.862  0.2951 -0.2468  0.1289
   66DMF     H1 1275   0.633   2.005   2.923  0.6360 -0.7723  1.6399
   66DMF     H2 1276   0.656   2.168   2.977  0.2772 -0.6331  0.9977
   66DMF     H3 1277   0.792   2.047   2.992 -0.3512 -0.4429  0.1224
   66DMF     H4 1278   0.748   2.093   2.592  0.8758 -0.7526 -0.2737
   66DMF     H5 1279   0.589   2.088   2.679  0.4658 -1.6028 -0.0638
   66DMF     H6 1280   0.693   1.945   2.670 -2.0694 -0.1986  1.3828
   66DMF     H7 1281   0.913   2.188   2.669 -0.4704 -0.1880 -0.5652
   67DMF     C1 1282   2.906   0.445   1.511 -0.5241  0.1938  0.1369
   67DMF     N1 1283   3.025   0.513   1.491  0.1038 -0.5716  0.4594
   67DMF     C2 1284   3.153   0.464   1.546  0.0493  0.6615 -0.0515
   67DMF     C3 1285   3.027   0.624   1.400  0.4458  0.6459  0.0630
   67DMF     O1 1286   2.923   0.669   1.354  0.4080 -0.2523 -0.0668
   67DMF     H1 1287   2.852   0.463   1.605 -1.1394 -2.3457  0.3005
   67DMF     H2 1288   2.917   0.339   1.533 -1.1517 -0.0196 -0.5524
   67DMF     H3 1289   2.838   0.454   1.425 -0.2675  0.9464  0.0019
   67DMF     H4 1290   3.196   0.538   1.615  1.4571  0.9649 -1.2357
   67DMF     H5 1291   3.222   0.449   1.462  1.0334 -2.7444  1.2759
   67DMF     H6 1292   3.147   0.365   1.593 -0.5305  0.9101  0.4093
   67DMF     H7 1293   3.130   0.659   1.380 -0.1140  2.3555  0.1700
   68DMF     C1 1294   0.857   3.379   1.093 -0.4439 -0.9402 -0.4962
   68DMF     N1 1295   0.824   3.517   1.139  0.4223  0.3646 -0.0241
   68DMF     C2 1296   0.937   3.596   1.170 -0.6997  0.8081  0.3129
   68DMF     C3 1297   0.689   3.562   1.129  0.1509 -0.5212  0.4266
   68DMF     O1 1298   0.599   3.490   1.095  0.1304  0.1046  0.1926
   68DMF     H1 1299   0.853   3.365   0.984 -2.3504 -2.0198 -0.3074
   68DMF     H2 1300   0.777   3.314   1.129 -2.3926  1.7888  0.2314
   68DMF     H3 1301   0.956   3.355   1.135 -0.4273 -0.2314 -0.1144
   68DMF     H4 1302   0.993   3.550   1.252 -2.0888 -0.6456  0.4674
   68DMF     H5 1303   0.895   3.696   1.187 -1.6601  0.1494  1.9054
   68DMF     H6 1304   1.006   3.595   1.085 -0.9864  0.7548  0.0831
   68DMF     H7 1305   0.675   3.667   1.159 -0.1484  0.0389 -1.5738
   69DMF     C1 1306   1.505   2.938   0.771  0.9278 -0.4362 -0.5159
   69DMF     N1 1307   1.409   2.837   0.732 -0.1923  0.2676  0.4154
   69DMF     C2 1308   1.437   2.758   0.616  0.0877 -0.4778 -0.1223
   69DMF     C3 1309   1.288   2.809   0.804  0.5722  0.1631 -0.0146
   69DMF     O1 1310   1.274   2.852   0.921 -0.1437  0.5218  0.2722
   69DMF     H1 1311   1.468   3.039   0.753 -1.4879 -0.9389  1.3711
   69DMF     H2 1312   1.598   2.924   0.715  0.0245 -2.5333 -1.5919
   69DMF     H3 1313   1.524   2.925   0.878  0.6946  0.9613 -0.3001
   69DMF     H4 1314   1.354   2.699   0.576  0.6888 -0.7335 -0.9942
   69DMF     H5 1315   1.519   2.688   0.638  2.3074  2.3755  0.9519
   69DMF     H6 1316   1.474   2.816   0.531  1.2421 -0.5339  0.3263
   69DMF     H7 1317   1.216   2.741   0.755  1.3719 -0.1257 -0.8011
   70DMF     C1 1318   0.189   1.267   1.546  0.7564  0.3448  0.3999
   70DMF     N1 1319   0.241   1.124   1.531  0.0264 -0.5455  0.3668
   70DMF     C2 1320   0.146   1.027   1.481  0.1735  1.0062 -0.4482
   70DMF     C3 1321   0.380   1.096   1.548 -0.2694 -0.3173  1.1893
   70DMF     O1 1322   0.468   1.170   1.592 -0.5127 -0.3404  0.2240
   70DMF     H1 1323   0.263   1.333   1.594  0.2567  0.5873  0.8433
   70DMF     H2 1324   0.101   1.274   1.611  0.3874  0.1828 -0.0841
   70DMF     H3 1325   0.161   1.321   1.454  0.3138  0.9049  0.8612
   70DMF     H4 1326   0.204   0.954   1.423  0.3383  0.5316  0.3087
   70DMF     H5 1327   0.076   1.080   1.415 -0.7364  0.6339  0.1922
   70DMF     H6 1328   0.090   0.981   1.564 -1.6282  1.1879 -1.5437
   70DMF     H7 1329   0.398   0.987   1.535  1.8431  0.2418 -0.9954
   71DMF     C1 1330   1.320   2.334   1.274  0.2055 -0.0532 -0.0799
   71DMF     N1 1331   1.250   2.347   1.404  0.3385 -0.6220  0.3146
   71DMF     C2 1332   1.105   2.340   1.400 -0.1348 -0.1058  0.0273
   71DMF     C3 1333   1.310   2.394   1.522  0.2735 -0.7795 -0.0113
   71DMF     O1 1334   1.429   2.397   1.536  0.2564 -0.9392  0.4207
   71DMF     H1 1335   1.251   2.287   1.203 -2.2357  2.6213  0.4064
   71DMF     H2 1336   1.411   2.272   1.275  0.3259  0.1180 -0.6070
   71DMF     H3 1337   1.351   2.431   1.232 -2.1090  0.6488 -0.2080
   71DMF     H4 1338   1.063   2.364   1.301  0.7944 -2.8588 -1.0749
   71DMF     H5 1339   1.063   2.399   1.482  0.5031  0.7767 -0.2664
   71DMF     H6 1340   1.080   2.237   1.427  1.5187 -0.5272  0.0297
   71DMF     H7 1341   1.241   2.429   1.601 -0.1574  1.6510 -1.4100
   72DMF     C1 1342   1.991   1.603   1.133 -0.0755 -0.0897 -0.5699
   72DMF     N1 1343   1.866   1.667   1.162  0.6078  1.0024 -0.1029
   72DMF     C2 1344   1.742   1.584   1.153 -0.1323 -0.8600  0.3733
   72DMF     C3 1345   1.859   1.805   1.161  0.3505  0.7921 -0.4772
   72DMF     O1 1346   1.959   1.872   1.166  0.8206 -0.1738  0.3471
   72DMF     H1 1347   2.060   1.611   1.218 -1.6015  1.5370  0.5308
   72DMF     H2 1348   2.019   1.623   1.028  0.0498  0.9355 -0.3413
   72DMF     H3 1349   1.970   1.495   1.133  0.5378 -0.2178 -1.2276
   72DMF     H4 1350   1.717   1.586   1.046 -1.4460 -0.1821  0.6806
   72DMF     H5 1351   1.656   1.628   1.205  0.1794 -0.9509  0.9696
   72DMF     H6 1352   1.761   1.481   1.184 -1.5251 -1.5121 -0.8496
   72DMF     H7 1353   1.754   1.838   1.153 -0.5860 -1.0635  2.9500
   73DMF     C1 1354   0.496   0.509   1.132 -0.9431 -0.5941  0.3043
   73DMF     N1 1355   0.625   0.582   1.101 -0.7243  0.3241  0.3112
   73DMF     C2 1356   0.626   0.698   1.010  0.3316 -0.3783 -0.4799
   73DMF     C3 1357   0.742   0.547   1.165 -0.1397  0.3276  0.1915
   73DMF     O1 1358   0.762   0.455   1.242  0.3134  0.0746 -0.0430
   73DMF     H1 1359   0.417   0.537   1.060 -0.9669 -1.4901 -0.0210
   73DMF     H2 1360   0.476   0.536   1.236 -0.9782  0.1713  0.1002
   73DMF     H3 1361   0.513   0.401   1.127 -1.0589 -0.6358  0.7851
   73DMF     H4 1362   0.587   0.788   1.058 -0.4120  0.2424 -2.1837
   73DMF     H5 1363   0.564   0.678   0.921  0.0951  0.4828 -0.5105
   73DMF     H6 1364   0.724   0.715   0.963 -0.2534 -0.6408 -1.8155
   73DMF     H7 1365   0.829   0.608   1.137 -1.2934  2.1435  0.4438
   74DMF     C1 1366   1.922   2.486   2.975  0.1146 -0.5094  0.1957
   74DMF     N1 1367   1.828   2.489   2.862  0.3073 -0.1031 -0.5623
   74DMF     C2 1368   1.767   2.362   2.823  0.3436  0.8529 -0.2172
   74DMF     C3 1369   1.804   2.602   2.782 -0.3192 -0.3656  0.2795
   74DMF     O1 1370   1.873   2.701   2.802  0.4853  0.1242 -0.2781
   74DMF     H1 1371   1.880   2.432   3.062 -0.0488 -0.9434 -0.1504
   74DMF     H2 1372   1.960   2.585   3.005  2.6550 -0.6739 -2.2079
   74DMF     H3 1373   2.008   2.429   2.937  0.6036 -1.0212  1.9694
   74DMF     H4 1374   1.658   2.364   2.838  0.0010 -0.6836 -2.3436
   74DMF     H5 1375   1.813   2.275   2.872 -0.7071 -0.6238 -1.8106
   74DMF     H6 1376   1.780   2.347   2.715 -2.0062 -1.0995 -0.2777
   74DMF     H7 1377   1.733   2.571   2.703  3.4543 -0.7819 -3.1233
   75DMF     C1 1378   1.219   1.789   2.635  0.8346  0.1668 -0.2557
   75DMF     N1 1379   1.094   1.779   2.707  0.1289 -0.1266 -0.4559
   75DMF     C2 1380   1.081   1.680   2.807  0.4074  0.1066  0.0960
   75DMF     C3 1381   0.987   1.861   2.680  0.0297  0.6218  0.1841
   75DMF     O1 1382   0.996   1.947   2.594 -0.1025  0.2885  0.1069
   75DMF     H1 1383   1.266   1.692   2.613  1.3007  0.7450 -1.9066
   75DMF     H2 1384   1.280   1.852   2.701  0.2051 -0.0786  0.5731
   75DMF     H3 1385   1.202   1.847   2.544 -2.9259 -1.0468 -0.3788
   75DMF     H4 1386   1.050   1.585   2.761  2.9075 -0.4473 -0.5319
   75DMF     H5 1387   1.018   1.706   2.892 -0.3400 -1.8256  0.1528
   75DMF     H6 1388   1.181   1.666   2.849  0.5689 -0.0004 -0.3210
   75DMF     H7 1389   0.896   1.834   2.737  1.6579 -0.6062  2.3272
   76DMF     C1 1390   0.264   0.100   1.304  0.0957 -0.0662  0.7119
   76DMF     N1 1391   0.168   0.203   1.244 -0.0949 -0.5574 -0.0003
   76DMF     C2 1392   0.194   0.241   1.108  0.6460 -0.0733  0.1705
   76DMF     C3 1393   0.068   0.263   1.317  0.4270 -0.1414  0.3409
   76DMF     O1 1394   0.054   0.240   1.439  0.3016 -0.4338 -0.4507
   76DMF     H1 1395   0.366   0.132   1.276 -0.4102 -0.0991 -1.2568
   76DMF     H2 1396   0.247  -0.000   1.264 -0.3263 -0.3144  1.5068
   76DMF     H3 1397   0.261   0.101   1.414 -0.5333 -1.1831  0.7112
   76DMF     H4 1398   0.257   0.168   1.055  0.2758 -2.3104  2.6698
   76DMF     H5 1399   0.217   0.347   1.093  3.0185 -0.6806 -0.6358
   76DMF     H6 1400   0.097   0.240   1.056  0.1584 -0.7729  1.0631
   76DMF     H7 1401  -0.001   0.332   1.264  2.9062  1.4822 -0.8961
   77DMF     C1 1402   1.558   2.740   1.489  0.0844 -0.2663  0.8329
   77DMF     N1 1403   1.695   2.692   1.504 -0.1173  0.3425  0.2603
   77DMF     C2 1404   1.715   2.542   1.502 -0.0425 -0.1828  0.0434
   77DMF     C3 1405   1.795   2.781   1.531  0.2072 -0.0703 -0.0375
   77DMF     O1 1406   1.785   2.899   1.515 -0.0060  0.2038  0.6044
   77DMF     H1 1407   1.503   2.722   1.582 -0.1977 -2.6079  0.2545
   77DMF     H2 1408   1.503   2.679   1.416  2.5363  0.0288 -1.3417
   77DMF     H3 1409   1.548   2.843   1.454 -2.3200 -0.9115 -0.5074
   77DMF     H4 1410   1.717   2.489   1.598  0.1919  1.4237  0.9596
   77DMF     H5 1411   1.812   2.527   1.455 -0.9881 -1.0000 -1.6849
   77DMF     H6 1412   1.636   2.496   1.442 -1.3928  1.1401  0.7469
   77DMF     H7 1413   1.886   2.732   1.570 -0.4809 -1.1906  0.1909
   78DMF     C1 1414   3.017   0.692   3.198  0.6184 -1.0431  0.0046
   78DMF     N1 1415   3.141   0.605   3.186 -0.4740 -0.1284  0.4120
   78DMF     C2 1416   3.176   0.540   3.065  0.2383  0.1031  0.4729
   78DMF     C3 1417   3.229   0.598   3.292 -0.1133 -0.6971 -0.6606
   78DMF     O1 1418   3.207   0.670   3.389  0.0128  0.1974 -0.0781
   78DMF     H1 1419   2.949   0.658   3.119 -1.0809 -0.4232  1.1673
   78DMF     H2 1420   3.041   0.797   3.180  1.1903 -0.7815  2.1314
   78DMF     H3 1421   2.969   0.683   3.296 -0.1563 -0.4823 -0.3156
   78DMF     H4 1422   3.174   0.432   3.084  0.7857  0.2251  1.2406
   78DMF     H5 1423   3.273   0.577   3.030  0.1128 -0.2816 -0.3072
   78DMF     H6 1424   3.097   0.560   2.991 -1.1160 -0.2472  1.7945
   78DMF     H7 1425   3.309   0.521   3.282  2.5626  1.7713  0.8839
   79DMF     C1 1426   2.640   2.525   1.377  0.1664  0.0203 -0.8489
   79DMF     N1 1427   2.738   2.527   1.489  0.0868 -0.0126  0.3569
   79DMF     C2 1428   2.816   2.412   1.509 -0.6028  0.2175 -0.2238
   79DMF     C3 1429   2.750   2.644   1.566 -0.2995  0.4078 -0.4760
   79DMF     O1 1430   2.695   2.756   1.544 -0.1339 -0.6826 -0.1076
   79DMF     H1 1431   2.556   2.460   1.404 -1.4895  1.3589 -2.5948
   79DMF     H2 1432   2.684   2.481   1.286  0.7829  1.2339 -1.1420
   79DMF     H3 1433   2.612   2.625   1.342 -2.3359 -0.2830  0.2046
   79DMF     H4 1434   2.901   2.424   1.441 -0.5592  0.7272 -0.0799
   79DMF     H5 1435   2.770   2.322   1.468 -2.0128  1.0167 -0.4215
   79DMF     H6 1436   2.850   2.410   1.614  0.3227 -1.0587 -0.5408
   79DMF     H7 1437   2.814   2.623   1.654 -0.8633 -1.5076 -0.5041
   80DMF     C1 1438   1.390   1.467   1.214 -0.9588  0.9386  0.0034
   80DMF     N1 1439   1.329   1.477   1.083 -0.0835 -0.1592  0.4414
   80DMF     C2 1440   1.416   1.438   0.967  1.0566 -0.7215 -0.1916
   80DMF     C3 1441   1.213   1.545   1.065  0.4882  0.0399  0.1948
   80DMF     O1 1442   1.137   1.589   1.154  0.4966  0.6356  0.6349
   80DMF     H1 1443   1.450   1.559   1.216 -0.5360  0.8753 -4.2730
   80DMF     H2 1444   1.445   1.373   1.224  0.5979  1.6967 -1.2121
   80DMF     H3 1445   1.313   1.467   1.292  0.4527 -2.2996  1.4584
   80DMF     H4 1446   1.518   1.421   1.002  1.3462  0.4902 -0.4412
   80DMF     H5 1447   1.414   1.515   0.888 -2.8563 -0.2665  0.2223
   80DMF     H6 1448   1.395   1.340   0.923 -2.0897 -0.8379  1.4198
   80DMF     H7 1449   1.195   1.576   0.961 -0.0570  0.8577  0.5302
   81DMF     C1 1450   2.770   2.702   2.514 -0.4274 -0.6055  0.2052
   81DMF     N1 1451   2.675   2.720   2.615  0.5883 -0.3284  0.3301
   81DMF     C2 1452   2.698   2.793   2.735 -0.3831  0.2735 -0.7706
   81DMF     C3 1453   2.546   2.667   2.602  0.0766 -0.2523  0.2092
   81DMF     O1 1454   2.498   2.614   2.501  0.4815  0.3220  0.8675
   81DMF     H1 1455   2.847   2.638   2.559 -0.7101  0.8254  2.7721
   81DMF     H2 1456   2.825   2.797   2.505  0.1103 -0.8147  1.2110
   81DMF     H3 1457   2.746   2.659   2.416  1.6281  0.0302 -0.6140
   81DMF     H4 1458   2.636   2.883   2.722 -2.9332 -1.1642  1.1291
   81DMF     H5 1459   2.806   2.804   2.750 -0.7842  3.3796  0.3498
   81DMF     H6 1460   2.667   2.738   2.825  0.7210  0.8900 -0.0053
   81DMF     H7 1461   2.490   2.676   2.697 -1.5080  1.2070 -0.8517
   82DMF     C1 1462   1.976   0.530   1.566 -0.4107  0.7174 -0.3049
   82DMF     N1 1463   1.863   0.620   1.550 -0.2522 -0.2281  0.2601
   82DMF     C2 1464   1.728   0.563   1.546 -0.4108  0.0030  0.2144
   82DMF     C3 1465   1.880   0.758   1.524  0.5847  0.4824  1.1944
   82DMF     O1 1466   1.982   0.820   1.512  0.2413  0.1740 -0.1553
   82DMF     H1 1467   1.935   0.434   1.599 -0.6753 -0.1548 -3.0280
   82DMF     H2 1468   2.045   0.588   1.629  1.9126 -2.0292 -0.1871
   82DMF     H3 1469   2.024   0.517   1.468  0.2600 -1.6769  0.2948
   82DMF     H4 1470   1.727   0.458   1.578 -2.7430  0.4325  1.7202
   82DMF     H5 1471   1.686   0.567   1.445 -0.9187  2.8022  0.5152
   82DMF     H6 1472   1.652   0.616   1.606 -1.8606 -0.6428 -1.0197
   82DMF     H7 1473   1.782   0.805   1.501  0.4570 -0.5817 -0.6015
   83DMF     C1 1474   2.240   2.574   1.517  0.3695 -0.7272  0.1242
   83DMF     N1 1475   2.246   2.426   1.546 -0.5154 -0.3278  0.2100
   83DMF     C2 1476   2.371   2.350   1.568 -0.3627  0.0465  0.4151
   83DMF     C3 1477   2.122   2.355   1.554  0.2038  0.3187 -0.6526
   83DMF     O1 1478   2.016   2.405   1.528  0.7736 -0.2689  0.2046
   83DMF     H1 1479   2.202   2.628   1.604 -0.6992  1.4246 -1.6541
   83DMF     H2 1480   2.166   2.596   1.440 -1.4731 -1.5778  1.6223
   83DMF     H3 1481   2.341   2.613   1.498  0.2015 -0.4345 -0.1571
   83DMF     H4 1482   2.458   2.412   1.596  0.1333 -1.0044  1.2211
   83DMF     H5 1483   2.400   2.297   1.476 -1.0856 -0.3433  0.4158
   83DMF     H6 1484   2.353   2.283   1.652  1.4437  0.0818  0.8713
   83DMF     H7 1485   2.131   2.247   1.576 -0.3735  0.7391  1.7850
   84DMF     C1 1486   0.684   2.943   1.214  0.2262  0.3527 -0.0874
   84DMF     N1 1487   0.690   3.074   1.278 -0.5083  0.2396 -0.7642
   84DMF     C2 1488   0.562   3.140   1.301 -0.3430  0.1227  0.1883
   84DMF     C3 1489   0.814   3.131   1.304  0.7147 -0.3157  0.4575
   84DMF     O1 1490   0.920   3.070   1.289 -0.1833  0.0175 -0.1732
   84DMF     H1 1491   0.786   2.902   1.209  0.2651  0.0392  2.6485
   84DMF     H2 1492   0.637   2.955   1.116  0.6219  1.1768 -0.1830
   84DMF     H3 1493   0.627   2.874   1.276  0.8792  1.8388  2.2470
   84DMF     H4 1494   0.500   3.124   1.212 -0.3555 -0.6729  0.3403
   84DMF     H5 1495   0.576   3.247   1.324 -0.2277 -0.2558  1.9598
   84DMF     H6 1496   0.508   3.098   1.387 -2.7352  2.1272 -0.2472
   84DMF     H7 1497   0.799   3.233   1.343 -2.0513 -0.7042  0.4965
   85DMF     C1 1498   1.391   1.113   1.476 -0.2403 -0.1089  0.0488
   85DMF     N1 1499   1.348   0.976   1.520 -0.2814  0.7526 -0.3950
   85DMF     C2 1500   1.205   0.949   1.547 -0.3379 -0.5855  0.3380
   85DMF     C3 1501   1.448   0.887   1.568 -0.0233  0.6183 -0.1497
   85DMF     O1 1502   1.568   0.900   1.543 -0.4702  0.3082  0.0268
   85DMF     H1 1503   1.457   1.166   1.545 -0.2217  0.8915 -0.7242
   85DMF     H2 1504   1.311   1.188   1.470 -1.4786 -1.5434 -2.2219
   85DMF     H3 1505   1.454   1.101   1.387  0.7971  0.9702  0.6262
   85DMF     H4 1506   1.190   0.881   1.631  2.2843 -0.7232  0.7362
   85DMF     H5 1507   1.148   0.915   1.460  1.0583 -1.2511 -0.3175
   85DMF     H6 1508   1.171   1.045   1.588 -1.8882 -1.1927  0.5163
   85DMF     H7 1509   1.400   0.807   1.628 -2.5085  0.7017 -1.9542
   86DMF     C1 1510   2.697   1.270   1.038 -0.0953  0.3264  0.0062
   86DMF     N1 1511   2.635   1.161   1.133 -0.1332  0.4698 -0.6838
   86DMF     C2 1512   2.488   1.144   1.119 -0.8358 -0.1909  0.2410
   86DMF     C3 1513   2.711   1.072   1.216  0.0073 -0.0514  1.1260
   86DMF     O1 1514   2.835   1.089   1.220  0.7370 -0.1221 -0.3642
   86DMF     H1 1515   2.741   1.354   1.094  2.1047  0.4845 -1.8743
   86DMF     H2 1516   2.635   1.302   0.954 -1.3518 -0.3012  0.6784
   86DMF     H3 1517   2.785   1.224   0.991 -1.1061 -0.2015 -1.4062
   86DMF     H4 1518   2.438   1.137   1.217 -2.1589 -1.5104 -0.5019
   86DMF     H5 1519   2.465   1.049   1.069  1.2474 -0.5170 -0.1108
   86DMF     H6 1520   2.452   1.225   1.054 -0.0301 -0.6377 -0.7787
   86DMF     H7 1521   2.656   0.994   1.272  0.9747 -0.9136  0.8927
   87DMF     C1 1522   0.462   1.982   1.539 -0.1047 -0.4137 -0.1162
   87DMF     N1 1523   0.610   1.979   1.543 -0.3792  0.3279 -0.3774
   87DMF     C2 1524   0.669   1.849   1.522 -0.4526  0.2404 -0.6855
   87DMF     C3 1525   0.686   2.093   1.536  0.6985  0.2567 -0.3174
   87DMF     O1 1526   0.648   2.206   1.508  0.7721 -0.2784  0.3686
   87DMF     H1 1527   0.423   2.052   1.614 -0.0086  0.0630 -0.5120
   87DMF     H2 1528   0.424   1.882   1.565  0.8108 -1.0593 -1.2131
   87DMF     H3 1529   0.438   2.008   1.436  3.5863  0.0998 -0.9250
   87DMF     H4 1530   0.769   1.837   1.567 -0.6606 -0.3353 -0.3621
   87DMF     H5 1531   0.668   1.820   1.416 -0.2169  0.2600 -0.6940
   87DMF     H6 1532   0.619   1.770   1.580  0.7057 -0.5429 -0.7238
   87DMF     H7 1533   0.791   2.074   1.566  0.6866 -0.1683 -0.5436
   88DMF     C1 1534   1.172   0.059   0.676 -0.2305  0.1667 -0.7268
   88DMF     N1 1535   1.270   0.135   0.755  0.2253  0.6457 -0.1208
   88DMF     C2 1536   1.330   0.081   0.875 -0.4483  0.0586  0.4998
   88DMF     C3 1537   1.286   0.274   0.721 -0.0707  0.1647 -0.0845
   88DMF     O1 1538   1.228   0.327   0.630  0.3047 -0.5036  0.3808
   88DMF     H1 1539   1.074   0.108   0.680 -0.5237 -0.1373 -3.3115
   88DMF     H2 1540   1.159  -0.040   0.722 -0.2978  0.4226 -0.1832
   88DMF     H3 1541   1.199   0.046   0.571  0.5809 -1.3582 -0.3517
   88DMF     H4 1542   1.297   0.149   0.954  0.3128 -2.1047  2.7572
   88DMF     H5 1543   1.439   0.080   0.863 -0.5361  0.2163 -0.3086
   88DMF     H6 1544   1.306  -0.025   0.892  0.2959 -0.1609  0.2008
   88DMF     H7 1545   1.355   0.325   0.791 -0.2274 -0.0324  0.2179
   89DMF     C1 1546   1.705   1.518   3.395  0.5554 -0.1224 -0.0610
   89DMF     N1 1547   1.774   1.603   3.492 -0.2508  0.1951 -0.3751
   89DMF     C2 1548   1.916   1.641   3.461 -0.9367  0.0746  0.4310
   89DMF     C3 1549   1.720   1.627   3.620 -0.1704 -0.2610  0.3260
   89DMF     O1 1550   1.605   1.590   3.641  0.0301 -0.0833 -0.2653
   89DMF     H1 1551   1.628   1.577   3.343  0.7128 -0.2405 -0.4309
   89DMF     H2 1552   1.669   1.433   3.454  1.9280  0.3566  1.4833
   89DMF     H3 1553   1.780   1.474   3.327 -0.2437 -1.4933 -0.0839
   89DMF     H4 1554   1.948   1.723   3.527  0.6047 -0.4502  0.3628
   89DMF     H5 1555   1.927   1.685   3.361  0.9942 -0.7325  0.2689
   89DMF     H6 1556   1.982   1.561   3.495 -1.7130 -0.6754  0.1995
   89DMF     H7 1557   1.790   1.687   3.681  0.3881 -0.5038 -0.0771
   90DMF     C1 1558   1.360   1.613   1.556 -0.6786 -0.2120  0.2500
   90DMF     N1 1559   1.508   1.614   1.549  0.5239 -0.9301 -0.6433
   90DMF     C2 1560   1.572   1.484   1.533  0.1716  0.0803 -0.1212
   90DMF     C3 1561   1.581   1.733   1.569  0.2572  0.3148  0.0182
   90DMF     O1 1562   1.528   1.836   1.583 -0.3823  0.6013 -0.4903
   90DMF     H1 1563   1.315   1.514   1.575  1.3720 -0.7121  2.8443
   90DMF     H2 1564   1.337   1.634   1.451 -1.4119  1.7542  0.7891
   90DMF     H3 1565   1.331   1.691   1.628  1.4221 -0.6934  1.6737
   90DMF     H4 1566   1.495   1.406   1.526  0.1723  0.1377 -0.8243
   90DMF     H5 1567   1.634   1.477   1.623 -0.4806 -3.6464  0.1198
   90DMF     H6 1568   1.627   1.483   1.438  1.7362 -3.0547  0.7299
   90DMF     H7 1569   1.689   1.716   1.557  0.1836  0.8985 -1.5686
   91DMF     C1 1570   2.560   2.941   3.539 -0.2954 -0.1679  0.3749
   91DMF     N1 1571   2.521   2.941   3.396  1.0005  0.2853  0.0361
   91DMF     C2 1572   2.391   2.929   3.354  0.2396  0.1529  0.3598
   91DMF     C3 1573   2.613   2.981   3.302 -0.0248 -0.3536 -0.1188
   91DMF     O1 1574   2.727   3.011   3.329 -0.1490 -0.2423  0.6204
   91DMF     H1 1575   2.479   2.931   3.613  0.2092 -1.0002  0.8222
   91DMF     H2 1576   2.602   3.039   3.565 -0.2014 -0.3214  0.8057
   91DMF     H3 1577   2.630   2.859   3.558 -1.9269 -0.9920  3.2674
   91DMF     H4 1578   2.341   2.880   3.438 -0.8761 -0.3975 -0.6033
   91DMF     H5 1579   2.384   2.858   3.270  2.7198 -0.8700  0.9889
   91DMF     H6 1580   2.349   3.029   3.335 -2.4944 -1.0651 -0.3527
   91DMF     H7 1581   2.580   3.000   3.198 -0.1930  3.1197  0.5086
   92DMF     C1 1582   0.949   1.439   0.337 -0.5237  0.3922  0.1202
   92DMF     N1 1583   0.845   1.351   0.408 -0.4310 -0.3927 -0.1036
   92DMF     C2 1584   0.771   1.411   0.523 -0.0115 -0.3236  0.4426
   92DMF     C3 1585   0.818   1.218   0.358 -0.3303 -0.2346 -0.4725
   92DMF     O1 1586   0.871   1.162   0.258 -0.1145 -0.2472 -0.1991
   92DMF     H1 1587   0.902   1.504   0.263 -1.0005 -0.5934 -0.4505
   92DMF     H2 1588   1.025   1.378   0.287 -0.9744  0.1775 -0.3100
   92DMF     H3 1589   1.003   1.504   0.407  1.1267 -1.3962  0.5565
   92DMF     H4 1590   0.782   1.355   0.616 -1.5037 -1.1955  0.1163
   92DMF     H5 1591   0.664   1.420   0.501  0.3299 -0.4225 -1.3521
   92DMF     H6 1592   0.813   1.509   0.549  1.9688 -1.0989  0.2589
   92DMF     H7 1593   0.751   1.161   0.425 -2.5806  1.5037 -1.2189
   93DMF     C1 1594   0.698   0.574   0.385 -0.2940  0.0985 -0.5728
   93DMF     N1 1595   0.632   0.691   0.429  0.3244  0.2774 -0.3142
   93DMF     C2 1596   0.703   0.782   0.509  0.3303 -0.2557 -0.4383
   93DMF     C3 1597   0.490   0.710   0.424  0.1200  0.0785 -0.5645
   93DMF     O1 1598   0.411   0.632   0.366  0.6257  0.1027 -0.1792
   93DMF     H1 1599   0.656   0.489   0.440  0.1344  0.5609  0.4928
   93DMF     H2 1600   0.808   0.576   0.389 -0.2583  0.0892 -1.3944
   93DMF     H3 1601   0.678   0.553   0.279 -0.5880 -0.2207 -0.4551
   93DMF     H4 1602   0.805   0.793   0.470  0.0958  0.5550 -0.8291
   93DMF     H5 1603   0.704   0.745   0.612  0.4116 -3.5006 -1.5441
   93DMF     H6 1604   0.654   0.879   0.521 -1.0839 -1.3649  3.5691
   93DMF     H7 1605   0.457   0.802   0.476 -2.0214 -1.3251  0.6470
   94DMF     C1 1606   0.121   0.260   3.436  0.4247 -0.4042 -0.5295
   94DMF     N1 1607  -0.013   0.268   3.508 -0.1654 -0.2178  0.1238
   94DMF     C2 1608  -0.069   0.399   3.544  0.2652  0.4977 -0.1057
   94DMF     C3 1609  -0.083   0.150   3.536  0.8080  0.3916  0.0203
   94DMF     O1 1610  -0.040   0.039   3.509 -0.3157  0.2562  0.9255
   94DMF     H1 1611   0.169   0.357   3.457  0.0490 -0.7920  2.3046
   94DMF     H2 1612   0.098   0.242   3.331 -0.6048 -2.3352  0.0129
   94DMF     H3 1613   0.186   0.186   3.485  1.3920  2.2282  2.3672
   94DMF     H4 1614  -0.065   0.412   3.653  0.5128  1.1111 -0.1828
   94DMF     H5 1615  -0.171   0.399   3.503 -0.2770  0.9293  1.2282
   94DMF     H6 1616  -0.015   0.475   3.486  0.6984 -1.1053 -1.8479
   94DMF     H7 1617  -0.180   0.161   3.589  0.1715 -1.6176 -0.6672
   95DMF     C1 1618   1.217   0.409   3.637  0.1464 -0.6013 -0.4030
   95DMF     N1 1619   1.244   0.374   3.495  0.4623  0.6396 -0.2615
   95DMF     C2 1620   1.158   0.417   3.390  0.3539 -0.4070 -0.9573
   95DMF     C3 1621   1.350   0.288   3.467  0.1846  0.2209 -0.0753
   95DMF     O1 1622   1.428   0.242   3.555  0.1160 -0.6031  0.6397
   95DMF     H1 1623   1.113   0.395   3.667  0.0473  0.2764 -0.3471
   95DMF     H2 1624   1.239   0.516   3.648  1.3212 -0.9583  0.9348
   95DMF     H3 1625   1.281   0.349   3.703  0.2308  0.1014  0.1639
   95DMF     H4 1626   1.221   0.468   3.316  0.3347  2.8236  1.1468
   95DMF     H5 1627   1.077   0.484   3.422  1.0399 -1.1586  2.5305
   95DMF     H6 1628   1.105   0.329   3.353  0.7206 -0.1693 -2.0625
   95DMF     H7 1629   1.373   0.283   3.359 -1.4688  1.0498 -0.4733
   96DMF     C1 1630   2.858   0.980   0.630  0.3557  0.2464  0.1953
   96DMF     N1 1631   2.931   0.951   0.756 -0.1618  0.1028 -0.6074
   96DMF     C2 1632   2.850   0.907   0.873 -0.3956  0.7984 -0.2200
   96DMF     C3 1633   3.071   0.938   0.761 -0.7889  0.3250 -0.2835
   96DMF     O1 1634   3.148   0.954   0.666  0.0494 -0.3928 -0.6423
   96DMF     H1 1635   2.870   0.900   0.556  0.3870 -0.7386  1.2475
   96DMF     H2 1636   2.894   1.077   0.595  1.5247 -0.4666 -0.6400
   96DMF     H3 1637   2.750   0.994   0.642 -0.1316 -1.7096 -1.5453
   96DMF     H4 1638   2.819   0.994   0.932  1.3859  0.2697  1.5378
   96DMF     H5 1639   2.913   0.845   0.938 -0.4344  0.2685 -0.6843
   96DMF     H6 1640   2.762   0.852   0.838  0.6760  0.1189 -1.9093
   96DMF     H7 1641   3.115   0.898   0.854  1.1389  0.1903 -1.2350
   97DMF     C1 1642   0.562   1.009   0.171 -0.0864  0.4913  0.5809
   97DMF     N1 1643   0.448   0.917   0.171 -0.2107 -0.5076  0.5068
   97DMF     C2 1644   0.435   0.822   0.064  0.3159  0.0416  0.3092
   97DMF     C3 1645   0.354   0.925   0.272  0.5445 -0.2231  0.2414
   97DMF     O1 1646   0.351   0.998   0.370 -0.0669  0.2430 -0.0921
   97DMF     H1 1647   0.526   1.111   0.186 -2.0501  0.1259 -1.3890
   97DMF     H2 1648   0.628   1.007   0.083  0.3681 -1.7351  0.9315
   97DMF     H3 1649   0.630   0.982   0.252  0.4483 -2.5191 -0.7920
   97DMF     H4 1650   0.530   0.801   0.013 -0.0547 -1.3280  0.1635
   97DMF     H5 1651   0.365   0.853  -0.015  0.1664 -0.2060  0.3428
   97DMF     H6 1652   0.385   0.731   0.101 -1.7035  1.1180  0.2892
   97DMF     H7 1653   0.268   0.856   0.260  0.0997  0.3914 -0.1403
   98DMF     C1 1654   2.635   0.694   1.538  0.4196 -0.0162  0.0620
   98DMF     N1 1655   2.493   0.737   1.540 -0.6252 -0.5651  0.1646
   98DMF     C2 1656   2.382   0.632   1.552 -0.2464  0.8256  0.5337
   98DMF     C3 1657   2.455   0.866   1.502  0.1390  0.1218 -0.0018
   98DMF     O1 1658   2.526   0.943   1.437  0.6366 -0.4907  0.2835
   98DMF     H1 1659   2.640   0.600   1.595  1.8093  0.2173  0.3519
   98DMF     H2 1660   2.688   0.771   1.596  0.8915 -0.8069  0.6923
   98DMF     H3 1661   2.680   0.678   1.439  2.1006 -1.5766  1.0346
   98DMF     H4 1662   2.406   0.561   1.631 -0.5347  1.0943  0.8618
   98DMF     H5 1663   2.363   0.585   1.455 -1.1376 -0.9774  1.5705
   98DMF     H6 1664   2.289   0.684   1.576 -1.7821 -1.6462  0.0407
   98DMF     H7 1665   2.350   0.886   1.527 -0.3850 -1.1838 -1.1063
   99DMF     C1 1666   2.818   1.696   0.542 -0.0087  1.0408 -0.3012
   99DMF     N1 1667   2.966   1.733   0.561 -0.4045  0.2303  0.3633
   99DMF     C2 1668   3.039   1.773   0.442  0.0039  0.0869  0.2752
   99DMF     C3 1669   3.009   1.784   0.686 -0.9037  0.5342  0.0908
   99DMF     O1 1670   2.942   1.770   0.789 -0.2811 -0.0049 -0.3101
   99DMF     H1 1671   2.800   1.588   0.551 -3.9797  1.4134 -2.6251
   99DMF     H2 1672   2.779   1.730   0.446 -1.6190 -0.9968 -0.4160
   99DMF     H3 1673   2.765   1.720   0.635  2.0159 -3.0120  2.0566
   99DMF     H4 1674   3.073   1.876   0.425  0.7743 -0.0870  0.7438
   99DMF     H5 1675   2.974   1.759   0.355  1.0646 -2.3918 -0.1594
   99DMF     H6 1676   3.131   1.714   0.430 -0.4677 -0.5826 -0.0788
   99DMF     H7 1677   3.109   1.830   0.683  0.0876 -1.5497  0.9065
  100DMF     C1 1678   2.198   1.734   2.673  0.5928  0.0734  0.4337
  100DMF     N1 1679   2.337   1.765   2.721 -0.2895 -0.2616 -0.0655
  100DMF     C2 1680   2.425   1.837   2.628 -0.6924  0.0557 -0.5478
  100DMF     C3 1681   2.397   1.701   2.827  0.7862 -0.0940  0.5568
  100DMF     O1 1682   2.330   1.628   2.892  0.0779  0.3313  0.1344
  100DMF     H1 1683   2.202   1.680   2.578  0.3221  2.6899 -1.0925
  100DMF     H2 1684   2.137   1.822   2.649 -0.1401 -1.1352 -2.3685
  100DMF     H3 1685   2.140   1.680   2.749  1.1817  0.4987  1.1880
  100DMF     H4 1686   2.496   1.904   2.679  2.3895 -1.1654 -3.0813
  100DMF     H5 1687   2.369   1.901   2.558  2.7807  1.0767 -2.5246
  100DMF     H6 1688   2.484   1.772   2.563  0.8335  2.1131 -1.2664
  100DMF     H7 1689   2.506   1.712   2.837  0.9562 -0.0296 -1.1621
  101DMF     C1 1690   2.066   0.636   2.408  0.5388  0.4305  0.0622
  101DMF     N1 1691   2.173   0.709   2.336 -0.2259  0.1338  0.9952
  101DMF     C2 1692   2.288   0.646   2.285 -0.4425  0.2687 -0.2243
  101DMF     C3 1693   2.169   0.851   2.343  0.1694  0.0441  0.1135
  101DMF     O1 1694   2.088   0.921   2.405 -0.7491 -0.2492  0.1218
  101DMF     H1 1695   2.078   0.644   2.517  3.8597 -0.5969 -0.1732
  101DMF     H2 1696   2.080   0.529   2.388 -0.7733  0.2837 -0.0789
  101DMF     H3 1697   1.968   0.664   2.367  1.6259  1.7008 -1.7424
  101DMF     H4 1698   2.316   0.568   2.357 -0.6440  0.3199 -0.0899
  101DMF     H5 1699   2.361   0.729   2.288 -0.0535 -0.1099  1.0692
  101DMF     H6 1700   2.287   0.604   2.184  0.8903 -1.0623  0.2942
  101DMF     H7 1701   2.252   0.902   2.291 -1.0880 -0.7818 -2.8007
  102DMF     C1 1702   3.033   0.327   0.684  0.5331  0.6000  0.1982
  102DMF     N1 1703   2.927   0.276   0.770  0.3630 -0.0132 -0.6989
  102DMF     C2 1704   2.897   0.135   0.774  0.3772  0.3336  0.8731
  102DMF     C3 1705   2.865   0.356   0.865  0.4874 -0.1890 -0.6733
  102DMF     O1 1706   2.901   0.471   0.898 -0.2565  0.6092  0.2391
  102DMF     H1 1707   2.992   0.391   0.604 -1.0834 -0.2728  0.3023
  102DMF     H2 1708   3.100   0.248   0.648  0.9431  1.8380 -1.8183
  102DMF     H3 1709   3.099   0.385   0.749  0.4631  1.3373 -0.3807
  102DMF     H4 1710   2.846   0.106   0.867  1.0912 -0.0082  1.1592
  102DMF     H5 1711   2.987   0.074   0.755 -0.0502  0.2013 -0.8442
  102DMF     H6 1712   2.832   0.109   0.689  2.4273  0.6471 -0.8119
  102DMF     H7 1713   2.781   0.306   0.917  0.9185 -0.5126 -0.2843
  103DMF     C1 1714   2.371   1.559   1.036 -0.5115 -0.0752 -0.2510
  103DMF     N1 1715   2.268   1.495   0.962  0.2331 -0.2275 -0.0905
  103DMF     C2 1716   2.266   1.520   0.821 -0.7859  0.3947 -0.5465
  103DMF     C3 1717   2.204   1.382   1.021  0.1792 -0.0696  0.2769
  103DMF     O1 1718   2.192   1.359   1.142 -0.1951  0.1570 -0.1123
  103DMF     H1 1719   2.404   1.657   1.002  0.3733  0.1525  1.2351
  103DMF     H2 1720   2.456   1.493   1.057 -0.6855 -0.7285 -1.5428
  103DMF     H3 1721   2.322   1.581   1.132 -0.9412  0.7538 -0.6595
  103DMF     H4 1722   2.167   1.537   0.777 -1.2980  0.9254  0.7930
  103DMF     H5 1723   2.308   1.430   0.774 -0.1953  0.7541 -0.7056
  103DMF     H6 1724   2.319   1.610   0.788  1.1556 -1.2621 -2.0666
  103DMF     H7 1725   2.161   1.312   0.947  0.3479 -1.4232  1.4298
  104DMF     C1 1726   2.323   2.499   3.440  0.0652 -0.0573  0.3413
  104DMF     N1 1727   2.290   2.485   3.302 -0.0898  0.0392 -0.1070
  104DMF     C2 1728   2.406   2.475   3.218 -0.0275 -0.3188 -0.5276
  104DMF     C3 1729   2.160   2.448   3.253  0.2153 -0.6934 -0.4622
  104DMF     O1 1730   2.061   2.445   3.320 -0.1384  0.2876 -0.3707
  104DMF     H1 1731   2.430   2.507   3.465 -0.1626  0.6020  1.1166
  104DMF     H2 1732   2.277   2.425   3.507 -0.7896 -0.7128 -0.9390
  104DMF     H3 1733   2.282   2.592   3.481 -1.1412 -1.5177  2.5305
  104DMF     H4 1734   2.453   2.574   3.211 -1.8424  0.4666 -1.9777
  104DMF     H5 1735   2.375   2.445   3.117  0.2885  0.3373 -0.8230
  104DMF     H6 1736   2.471   2.393   3.252 -0.3737 -1.0277 -1.5467
  104DMF     H7 1737   2.171   2.412   3.149 -0.5941  0.0852 -0.8265
  105DMF     C1 1738   2.915   3.404   3.619  0.8214  0.6949  0.1374
  105DMF     N1 1739   2.805   3.355   3.544 -0.0903 -0.1206 -0.1763
  105DMF     C2 1740   2.686   3.315   3.613  0.7867 -0.2441 -0.0434
  105DMF     C3 1741   2.805   3.337   3.403  0.4730 -0.6269 -0.0804
  105DMF     O1 1742   2.888   3.389   3.337 -0.6371  0.2695 -0.5962
  105DMF     H1 1743   2.919   3.363   3.721  0.3097 -1.8253 -0.8365
  105DMF     H2 1744   2.919   3.513   3.632  1.0876  0.6837  0.1535
  105DMF     H3 1745   3.009   3.374   3.572  0.4837  0.4990 -0.4131
  105DMF     H4 1746   2.675   3.366   3.709  1.8565  2.4954 -1.3108
  105DMF     H5 1747   2.693   3.207   3.629 -0.4047 -0.3288 -0.0795
  105DMF     H6 1748   2.604   3.331   3.542  0.7990  2.3823  0.4729
  105DMF     H7 1749   2.717   3.280   3.367  1.3621 -1.4010 -1.0670
  106DMF     C1 1750   0.643   1.608   0.112 -0.6542 -0.4311  0.2483
  106DMF     N1 1751   0.595   1.507   0.015 -0.1431 -0.1560  0.1197
  106DMF     C2 1752   0.647   1.369   0.037  0.4320 -0.6289  0.4228
  106DMF     C3 1753   0.522   1.543  -0.099 -0.2342  0.0888 -0.5823
  106DMF     O1 1754   0.491   1.655  -0.127  0.1295 -0.3448 -0.3654
  106DMF     H1 1755   0.744   1.647   0.093 -1.0876  0.0723 -1.0671
  106DMF     H2 1756   0.633   1.569   0.214  0.6701 -1.1629  0.1043
  106DMF     H3 1757   0.580   1.698   0.110  0.0493  0.0855  0.8482
  106DMF     H4 1758   0.617   1.301  -0.044 -2.1227  1.4727 -0.4596
  106DMF     H5 1759   0.605   1.339   0.134  0.2175 -2.4964 -0.2188
  106DMF     H6 1760   0.756   1.375   0.042  0.4061  0.1824  0.0202
  106DMF     H7 1761   0.493   1.451  -0.153  2.5182 -1.2500  0.1478
  107DMF     C1 1762   1.007   2.454   3.147  1.1215 -0.3497  0.4667
  107DMF     N1 1763   0.963   2.422   3.290 -0.5709  0.1820 -0.3401
  107DMF     C2 1764   1.068   2.356   3.376  0.5794 -0.5228  0.4256
  107DMF     C3 1765   0.835   2.458   3.335  0.0193  0.1592  0.0916
  107DMF     O1 1766   0.752   2.516   3.271 -0.0510 -0.3490 -0.5858
  107DMF     H1 1767   1.110   2.491   3.148  1.8308 -2.2759  1.4227
  107DMF     H2 1768   0.942   2.526   3.096 -0.7173 -2.6845 -0.5872
  107DMF     H3 1769   1.000   2.358   3.094 -0.6101 -0.1471  0.3043
  107DMF     H4 1770   1.168   2.396   3.354  0.4530  0.4996  1.6452
  107DMF     H5 1771   1.074   2.247   3.369 -2.7704 -0.9026  2.5342
  107DMF     H6 1772   1.054   2.382   3.482 -0.7555  0.9641 -0.0991
  107DMF     H7 1773   0.815   2.410   3.432  1.9268 -1.4975 -0.2818
  108DMF     C1 1774   1.862   2.056   3.485  0.5195 -0.6942 -0.2385
  108DMF     N1 1775   1.846   2.199   3.540  0.8173 -0.5057 -1.4100
  108DMF     C2 1776   1.768   2.299   3.461 -0.0759 -0.3408  0.5648
  108DMF     C3 1777   1.878   2.232   3.666  0.2568 -0.4646 -0.3599
  108DMF     O1 1778   1.912   2.155   3.746 -0.2072 -0.4173  0.2687
  108DMF     H1 1779   1.865   1.976   3.561 -1.4854 -0.0030  0.5951
  108DMF     H2 1780   1.944   2.039   3.414  1.7149 -0.3227  1.0198
  108DMF     H3 1781   1.771   2.048   3.425  0.3392  2.3639 -0.4392
  108DMF     H4 1782   1.786   2.261   3.360  2.9453 -0.2209  1.0225
  108DMF     H5 1783   1.825   2.392   3.447 -1.0406 -0.1813 -2.8647
  108DMF     H6 1784   1.661   2.305   3.485 -0.2379 -1.4695  0.1173
  108DMF     H7 1785   1.869   2.339   3.692 -2.1461 -0.8144  0.3382
  109DMF     C1 1786   3.212   1.863   1.511  0.3683 -0.1652 -0.5965
  109DMF     N1 1787   3.212   1.808   1.369  0.4555  0.0283 -0.2247
  109DMF     C2 1788   3.156   1.891   1.263 -0.7527 -0.3573  0.3863
  109DMF     C3 1789   3.293   1.703   1.330  0.3175  0.3262 -0.1672
  109DMF     O1 1790   3.344   1.620   1.412  0.4996 -0.3274 -0.4995
  109DMF     H1 1791   3.141   1.946   1.520 -1.3557 -1.7518  0.8052
  109DMF     H2 1792   3.313   1.898   1.535 -0.6091  1.2076  1.6583
  109DMF     H3 1793   3.182   1.780   1.576 -0.6205  0.3319 -0.4042
  109DMF     H4 1794   3.060   1.935   1.293 -1.6853 -1.9861 -0.1330
  109DMF     H5 1795   3.147   1.826   1.176 -1.3239 -0.5702  0.5988
  109DMF     H6 1796   3.220   1.978   1.247 -2.7896  1.1765  0.3152
  109DMF     H7 1797   3.306   1.694   1.221 -0.4511  0.1634 -0.2447
  110DMF     C1 1798   1.262   3.055   0.445  0.5380  0.4556 -0.3223
  110DMF     N1 1799   1.128   3.070   0.385  0.1548 -0.6932 -0.3006
  110DMF     C2 1800   1.096   3.207   0.337  0.0380  0.3399  0.1698
  110DMF     C3 1801   1.049   2.959   0.354  0.5758  0.5659  0.0256
  110DMF     O1 1802   1.071   2.839   0.369 -0.0985 -0.3776  0.2348
  110DMF     H1 1803   1.338   3.103   0.381  0.7903 -0.9673 -1.1152
  110DMF     H2 1804   1.282   2.947   0.451  1.3019  0.6328  0.5077
  110DMF     H3 1805   1.248   3.110   0.538 -0.5333 -0.0816 -0.1650
  110DMF     H4 1806   0.991   3.211   0.306  0.0016  0.0685  0.2527
  110DMF     H5 1807   1.161   3.227   0.251  0.9318 -1.5765  0.3514
  110DMF     H6 1808   1.116   3.270   0.425 -0.5007  1.5015 -0.5350
  110DMF     H7 1809   0.957   3.001   0.310 -0.5808  0.7848  2.5588
  111DMF     C1 1810   2.077   1.871   0.030  0.2530  0.2046 -0.5789
  111DMF     N1 1811   2.053   1.729   0.062 -0.2949  0.5621 -0.8694
  111DMF     C2 1812   1.965   1.697   0.179  0.2584  0.1765 -0.2197
  111DMF     C3 1813   2.123   1.623  -0.006  0.0245 -0.6872  0.0435
  111DMF     O1 1814   2.196   1.641  -0.105  0.4817 -0.4082  0.1870
  111DMF     H1 1815   2.092   1.918   0.128  1.4369  1.8204 -1.5073
  111DMF     H2 1816   1.993   1.916  -0.024 -0.2047  1.4059  1.1170
  111DMF     H3 1817   2.169   1.883  -0.029  0.7347 -0.1847  0.0755
  111DMF     H4 1818   1.943   1.790   0.233  0.6067 -0.6052  1.2878
  111DMF     H5 1819   2.017   1.628   0.247 -0.9894 -1.5990 -1.0080
  111DMF     H6 1820   1.870   1.647   0.155 -0.5706  1.7404 -0.2845
  111DMF     H7 1821   2.095   1.525   0.034 -1.1076  0.0718  1.1213
  112DMF     C1 1822   1.752   0.777   0.635  0.5285 -0.7346 -0.3322
  112DMF     N1 1823   1.625   0.839   0.664  0.1454 -0.3802 -0.1208
  112DMF     C2 1824   1.524   0.760   0.739  0.4270 -0.2392 -0.8263
  112DMF     C3 1825   1.573   0.951   0.591 -0.3196 -0.5145 -0.2416
  112DMF     O1 1826   1.634   1.002   0.495  0.0527 -0.4671  0.4082
  112DMF     H1 1827   1.811   0.760   0.726 -0.9127 -0.9348  0.5717
  112DMF     H2 1828   1.802   0.842   0.562 -1.7420 -0.7290 -1.9084
  112DMF     H3 1829   1.734   0.678   0.593  1.3207 -0.2245 -1.9076
  112DMF     H4 1830   1.575   0.685   0.800 -1.0370 -1.2703 -0.8676
  112DMF     H5 1831   1.457   0.714   0.666  0.4692  0.6620 -1.4451
  112DMF     H6 1832   1.465   0.827   0.803  0.6706 -1.7088  0.9905
  112DMF     H7 1833   1.480   0.986   0.641 -0.8759 -0.1892 -1.5043
  113DMF     C1 1834   2.135   0.862   3.249  0.2654  0.3663 -0.3075
  113DMF     N1 1835   2.205   0.940   3.351 -0.2129 -0.3261 -0.1752
  113DMF     C2 1836   2.179   0.911   3.491  0.3543  0.0747 -1.4097
  113DMF     C3 1837   2.304   1.031   3.313 -0.5779 -0.7876 -0.8334
  113DMF     O1 1838   2.317   1.058   3.194  0.2650  0.1188 -0.0078
  113DMF     H1 1839   2.075   0.790   3.306 -0.4692  1.6583  0.5634
  113DMF     H2 1840   2.209   0.802   3.194 -1.0354 -1.2838 -0.2972
  113DMF     H3 1841   2.070   0.924   3.186 -1.9351  0.3698  1.8999
  113DMF     H4 1842   2.169   1.005   3.546 -1.3098 -1.1942  0.5139
  113DMF     H5 1843   2.267   0.861   3.532  0.4655  2.0386  0.8281
  113DMF     H6 1844   2.085   0.856   3.501 -0.8184  2.4434  1.2937
  113DMF     H7 1845   2.362   1.076   3.396 -0.8684 -2.1653  0.1342
  114DMF     C1 1846   3.191   0.858   0.172 -0.2058 -0.7485 -0.8444
  114DMF     N1 1847   3.155   0.820   0.312 -0.4670  0.0589  0.5978
  114DMF     C2 1848   3.265   0.756   0.392  0.6876  0.1756 -0.4167
  114DMF     C3 1849   3.019   0.804   0.343 -0.5847 -0.0084  0.2243
  114DMF     O1 1850   2.933   0.872   0.292 -0.3885 -0.0990  0.1462
  114DMF     H1 1851   3.156   0.778   0.104 -1.3355 -2.5408  1.7726
  114DMF     H2 1852   3.299   0.874   0.166 -0.1420 -0.6512  0.5982
  114DMF     H3 1853   3.136   0.946   0.135 -0.3530 -0.0415  1.0457
  114DMF     H4 1854   3.233   0.658   0.428  1.7990  0.6243  1.8224
  114DMF     H5 1855   3.304   0.832   0.460  2.2906 -0.4683 -0.5855
  114DMF     H6 1856   3.345   0.731   0.321  2.0810  2.8309  0.1389
  114DMF     H7 1857   3.006   0.735   0.428 -0.2362 -0.3113  0.0374
  115DMF     C1 1858   1.216   0.678   2.955 -0.2108 -0.0572 -0.0879
  115DMF     N1 1859   1.280   0.584   2.861  0.4577  0.0114  0.4052
  115DMF     C2 1860   1.247   0.436   2.869 -0.3896  1.2803  0.0931
  115DMF     C3 1861   1.378   0.638   2.777 -0.0345 -0.0285  0.7920
  115DMF     O1 1862   1.405   0.756   2.769  0.0838  0.1021 -0.2898
  115DMF     H1 1863   1.295   0.733   3.008 -2.1082  2.0791  0.6207
  115DMF     H2 1864   1.155   0.617   3.022  0.3166  0.4791  0.8814
  115DMF     H3 1865   1.150   0.746   2.899  0.2745  1.0086  0.6244
  115DMF     H4 1866   1.152   0.404   2.824  2.2304  0.0027 -4.9031
  115DMF     H5 1867   1.239   0.421   2.977 -0.5360 -3.9148 -0.5356
  115DMF     H6 1868   1.319   0.373   2.815 -1.3963 -0.9298  1.2737
  115DMF     H7 1869   1.431   0.558   2.722  0.8110  0.9501  0.1654
  116DMF     C1 1870   3.308   1.626   3.285 -0.2713 -0.0485 -0.0631
  116DMF     N1 1871   3.277   1.641   3.144 -0.1268 -0.5237  0.3055
  116DMF     C2 1872   3.140   1.674   3.101  0.2169  0.3842 -0.3620
  116DMF     C3 1873   3.384   1.654   3.052  0.4066  0.6209 -0.4563
  116DMF     O1 1874   3.501   1.632   3.076  0.0234 -0.2052 -0.7540
  116DMF     H1 1875   3.367   1.534   3.293  1.2317  0.8125 -0.9474
  116DMF     H2 1876   3.213   1.609   3.337  0.9184  1.8960  2.9044
  116DMF     H3 1877   3.353   1.710   3.340 -1.4983  0.6110 -0.0449
  116DMF     H4 1878   3.088   1.718   3.186  0.0871  0.1028 -0.2973
  116DMF     H5 1879   3.089   1.589   3.054  0.4246  1.0539 -1.8315
  116DMF     H6 1880   3.155   1.750   3.023  2.0087  0.2612 -0.1686
  116DMF     H7 1881   3.338   1.669   2.952 -3.0737 -3.6168  0.3583
  117DMF     C1 1882   0.259   2.944   1.248 -0.6808 -0.4451  0.1327
  117DMF     N1 1883   0.210   3.003   1.118  0.5494  0.5995 -0.2086
  117DMF     C2 1884   0.286   2.981   0.994 -0.6456 -0.5229  0.1457
  117DMF     C3 1885   0.094   3.072   1.105  0.6444  0.2687 -0.3641
  117DMF     O1 1886   0.027   3.094   1.200 -0.2006 -0.1992  0.3724
  117DMF     H1 1887   0.358   2.902   1.229 -0.1744  1.2651 -1.1325
  117DMF     H2 1888   0.194   2.869   1.296  1.9209 -1.0033  2.9435
  117DMF     H3 1889   0.288   3.030   1.309  1.7283 -0.4008 -1.0084
  117DMF     H4 1890   0.212   2.949   0.919 -1.3129  0.0849  0.5434
  117DMF     H5 1891   0.382   2.928   0.999  0.6469  1.8601  1.3163
  117DMF     H6 1892   0.317   3.075   0.947  1.4035 -1.9764 -1.4914
  117DMF     H7 1893   0.072   3.105   1.001 -0.3295  0.0696 -0.2300
  118DMF     C1 1894   0.306   0.742   3.243 -0.5083 -0.1707  0.4869
  118DMF     N1 1895   0.454   0.742   3.280 -0.1679 -0.1732 -0.0729
  118DMF     C2 1896   0.551   0.755   3.168  0.0434 -0.0617 -0.8753
  118DMF     C3 1897   0.497   0.755   3.411  0.6960 -0.3408  0.4434
  118DMF     O1 1898   0.420   0.753   3.507  0.3294  0.7770 -0.0431
  118DMF     H1 1899   0.300   0.729   3.134  0.2798 -0.5909  0.4841
  118DMF     H2 1900   0.263   0.838   3.274 -1.0147 -0.3113  0.2187
  118DMF     H3 1901   0.240   0.666   3.287 -0.5989 -1.4544 -1.7967
  118DMF     H4 1902   0.593   0.658   3.140 -0.5610 -0.7433  0.5053
  118DMF     H5 1903   0.628   0.830   3.183 -0.2880 -0.0362  0.8004
  118DMF     H6 1904   0.493   0.784   3.079  1.6979 -0.0412 -1.9602
  118DMF     H7 1905   0.605   0.779   3.419  0.2297  1.9390  0.2019
  119DMF     C1 1906   0.310   1.299   0.373  0.4265 -0.0523  0.3597
  119DMF     N1 1907   0.287   1.440   0.322  0.2377  0.7679  0.4710
  119DMF     C2 1908   0.245   1.463   0.180 -0.1443 -0.1272 -0.0663
  119DMF     C3 1909   0.348   1.546   0.395  0.2039  0.5389 -1.0025
  119DMF     O1 1910   0.405   1.529   0.506  0.0731  0.7049 -0.0438
  119DMF     H1 1911   0.342   1.242   0.285  0.9590  0.6602  0.0967
  119DMF     H2 1912   0.211   1.261   0.402  0.4907  0.4552  1.2530
  119DMF     H3 1913   0.375   1.303   0.461 -0.5500  2.2026  1.0163
  119DMF     H4 1914   0.226   1.569   0.162 -0.5258 -0.2170 -0.2052
  119DMF     H5 1915   0.154   1.408   0.153 -0.5576  0.5699 -0.0968
  119DMF     H6 1916   0.325   1.433   0.111  1.0219  3.1604 -0.2114
  119DMF     H7 1917   0.339   1.645   0.346 -0.6954  1.6289  1.2572
  120DMF     C1 1918   1.408   1.247   0.301 -0.4773 -0.0405  0.4341
  120DMF     N1 1919   1.412   1.380   0.246  0.8660 -0.0519 -0.1147
  120DMF     C2 1920   1.446   1.395   0.100  0.5601  0.6352 -0.0793
  120DMF     C3 1921   1.353   1.482   0.323  0.4761  0.5082  0.2601
  120DMF     O1 1922   1.307   1.459   0.435  0.1502  0.6739  0.1848
  120DMF     H1 1923   1.443   1.234   0.404  1.5136 -1.9686 -0.4590
  120DMF     H2 1924   1.490   1.202   0.244 -2.1044  1.3607 -3.1558
  120DMF     H3 1925   1.305   1.211   0.289 -0.7783  0.6036  1.0259
  120DMF     H4 1926   1.381   1.462   0.041 -1.8017 -0.8005  0.8204
  120DMF     H5 1927   1.438   1.298   0.050  1.8090  0.6675 -0.3539
  120DMF     H6 1928   1.553   1.417   0.093  0.2630  2.7069  1.2844
  120DMF     H7 1929   1.338   1.579   0.272  1.0486  0.7884  0.6175
  121DMF     C1 1930   0.812   1.197   2.275  0.1839 -1.0622 -0.4998
  121DMF     N1 1931   0.950   1.153   2.267 -0.6726  0.1269  0.0013
  121DMF     C2 1932   1.052   1.258   2.237  0.3130  0.1122  0.4975
  121DMF     C3 1933   0.989   1.015   2.267 -0.1230  0.2669  0.4249
  121DMF     O1 1934   0.898   0.930   2.282  0.3038 -0.2199 -0.4373
  121DMF     H1 1935   0.770   1.199   2.173  0.4883 -2.3705 -0.6667
  121DMF     H2 1936   0.794   1.294   2.322 -0.0336 -1.9431  1.2597
  121DMF     H3 1937   0.748   1.122   2.323 -0.5830  1.0390  1.8639
  121DMF     H4 1938   1.065   1.317   2.329  1.8465 -0.2038  0.4929
  121DMF     H5 1939   1.015   1.329   2.161 -0.5328 -1.3718 -0.5032
  121DMF     H6 1940   1.147   1.215   2.204  0.9441  2.2460 -0.5511
  121DMF     H7 1941   1.098   0.996   2.267  0.3246  2.6107  3.1097
  122DMF     C1 1942   0.455   1.140   0.719 -0.2427  0.3203  0.7121
  122DMF     N1 1943   0.471   1.097   0.859  0.3764 -0.1285  0.2058
  122DMF     C2 1944   0.601   1.051   0.905  0.0694  0.4239 -0.6934
  122DMF     C3 1945   0.363   1.097   0.948 -0.0178  0.0308 -0.6059
  122DMF     O1 1946   0.252   1.145   0.917 -0.0706  0.9832  0.0689
  122DMF     H1 1947   0.432   1.057   0.652 -1.0254 -0.3146  1.7483
  122DMF     H2 1948   0.544   1.189   0.677 -1.2436  0.9253 -0.7314
  122DMF     H3 1949   0.377   1.217   0.707 -1.0960 -0.4750  1.1368
  122DMF     H4 1950   0.679   1.129   0.901  1.3170 -0.8560 -2.0396
  122DMF     H5 1951   0.626   0.961   0.848 -0.1140 -0.2123  0.2322
  122DMF     H6 1952   0.584   1.018   1.008 -0.5075  0.1499 -0.8762
  122DMF     H7 1953   0.385   1.046   1.044 -2.7193  0.2848  0.1828
  123DMF     C1 1954   2.423   1.875   0.246  0.0447  0.4291  0.6484
  123DMF     N1 1955   2.559   1.898   0.187 -0.2219 -0.0867 -0.2371
  123DMF     C2 1956   2.625   1.773   0.148  0.8458 -0.1789 -0.5372
  123DMF     C3 1957   2.611   2.028   0.165  0.1109  0.4169 -0.3492
  123DMF     O1 1958   2.556   2.131   0.202  0.0611  0.2666 -0.3212
  123DMF     H1 1959   2.436   1.882   0.355  0.8246  1.7195  0.4941
  123DMF     H2 1960   2.394   1.774   0.216 -0.2565 -0.1609  2.8693
  123DMF     H3 1961   2.351   1.951   0.211  1.8323  1.9648  0.1913
  123DMF     H4 1962   2.570   1.687   0.186 -2.3248  2.4271  1.0490
  123DMF     H5 1963   2.729   1.769   0.184  1.2153 -0.0942 -1.5644
  123DMF     H6 1964   2.623   1.757   0.039 -0.9857  1.6048 -0.7899
  123DMF     H7 1965   2.709   2.023   0.114 -0.6794 -2.7305 -1.6714
  124DMF     C1 1966   1.508   1.690   0.548  0.3177  0.7980  0.1950
  124DMF     N1 1967   1.641   1.700   0.613 -0.2733 -0.0030  0.6529
  124DMF     C2 1968   1.639   1.751   0.756  0.6588  0.8777  0.0767
  124DMF     C3 1969   1.762   1.682   0.539 -0.2594  0.3380  0.7169
  124DMF     O1 1970   1.757   1.654   0.421 -0.1653  0.3801  0.2024
  124DMF     H1 1971   1.513   1.726   0.445 -2.2090  3.0617  0.7794
  124DMF     H2 1972   1.433   1.750   0.602  2.3019  2.5547  1.0536
  124DMF     H3 1973   1.488   1.583   0.543 -1.4939  1.1496 -0.5619
  124DMF     H4 1974   1.572   1.695   0.823 -0.6080  0.7588 -1.2734
  124DMF     H5 1975   1.600   1.853   0.749  1.2286  0.9731 -1.8901
  124DMF     H6 1976   1.738   1.758   0.802  0.3154 -0.0669  0.9886
  124DMF     H7 1977   1.855   1.685   0.599  0.9092  0.2982 -1.0562
  125DMF     C1 1978   1.188   0.930   3.367 -0.3361 -0.1646  0.2094
  125DMF     N1 1979   1.054   0.949   3.302 -0.6738  0.2807 -0.3018
  125DMF     C2 1980   0.999   1.081   3.302  0.2233  0.1364  0.5533
  125DMF     C3 1981   0.990   0.839   3.230 -0.3140  0.0368 -1.1351
  125DMF     O1 1982   1.040   0.728   3.212 -0.1170 -0.6211 -0.3044
  125DMF     H1 1983   1.200   0.964   3.471  2.9253 -0.5677  0.0089
  125DMF     H2 1984   1.265   0.987   3.313 -0.1841 -0.4988  0.0717
  125DMF     H3 1985   1.217   0.824   3.367  1.7460  0.3609  2.1131
  125DMF     H4 1986   0.891   1.076   3.323  0.4843  0.4805  2.0012
  125DMF     H5 1987   1.003   1.109   3.196  0.9922  1.2121  0.8572
  125DMF     H6 1988   1.056   1.153   3.361 -0.0363  1.7049 -1.0480
  125DMF     H7 1989   0.887   0.867   3.200 -1.2274 -0.6533  1.2667
  126DMF     C1 1990   3.285   0.068   0.817 -0.0885 -0.0919 -0.8880
  126DMF     N1 1991   3.407   0.066   0.737  0.7125  0.5852  0.3926
  126DMF     C2 1992   3.415   0.133   0.604  0.1741  0.3490 -0.2783
  126DMF     C3 1993   3.519   0.004   0.794 -0.0266 -0.0196  0.4245
  126DMF     O1 1994   3.516  -0.062   0.896 -0.7616  0.2842  0.4834
  126DMF     H1 1995   3.292   0.158   0.880  0.8807 -2.0097  1.8479
  126DMF     H2 1996   3.274  -0.016   0.887  0.3605  0.7763  0.2419
  126DMF     H3 1997   3.200   0.079   0.749 -1.4055 -0.6264  0.6340
  126DMF     H4 1998   3.318   0.129   0.552  0.2916  3.2740 -0.8243
  126DMF     H5 1999   3.500   0.098   0.545 -0.3139 -0.4168 -0.5359
  126DMF     H6 2000   3.425   0.241   0.622  0.6334  0.0327  1.4813
  126DMF     H7 2001   3.601  -0.003   0.720 -2.6775 -4.1881 -2.3491
  127DMF     C1 2002   0.667   0.156   3.155  0.1429 -0.3020  0.7714
  127DMF     N1 2003   0.764   0.248   3.089  0.6678 -0.4799 -0.1318
  127DMF     C2 2004   0.908   0.202   3.071 -0.0331 -0.4141  0.0321
  127DMF     C3 2005   0.716   0.367   3.035  0.5668 -0.2274 -0.3292
  127DMF     O1 2006   0.598   0.392   3.043  0.2843 -0.3690 -0.6685
  127DMF     H1 2007   0.720   0.062   3.174 -1.0861 -0.8902  1.3295
  127DMF     H2 2008   0.584   0.135   3.086  1.7081 -1.8325 -0.7065
  127DMF     H3 2009   0.634   0.189   3.254 -1.7178  0.9985 -0.2448
  127DMF     H4 2010   0.937   0.228   2.969  0.5291 -1.0769  0.0157
  127DMF     H5 2011   0.916   0.093   3.083  2.1660 -0.3539 -0.6796
  127DMF     H6 2012   0.970   0.257   3.143 -1.4611  1.8964 -0.4590
  127DMF     H7 2013   0.799   0.423   2.989 -0.2908  0.2640 -1.2924
  128DMF     C1 2014   0.124   0.573   0.152 -0.2192 -0.0627 -0.0039
  128DMF     N1 2015   0.175   0.555   0.019  0.5130  0.0387 -0.2354
  128DMF     C2 2016   0.283   0.450   0.004  0.7806 -0.6556  0.1668
  128DMF     C3 2017   0.155   0.659  -0.082  0.2501  0.4048 -0.1965
  128DMF     O1 2018   0.077   0.753  -0.070 -0.5349 -0.1168  0.0209
  128DMF     H1 2019   0.049   0.500   0.185  1.8642 -1.9126  0.7468
  128DMF     H2 2020   0.088   0.676   0.160 -2.5962 -0.8323 -0.5895
  128DMF     H3 2021   0.204   0.554   0.225 -1.4709  2.1731  2.0478
  128DMF     H4 2022   0.234   0.352   0.011  0.7978 -0.5713  1.6528
  128DMF     H5 2023   0.360   0.455   0.081 -0.3202 -0.1513  1.2562
  128DMF     H6 2024   0.334   0.463  -0.092 -0.1930  0.5504 -0.2043
  128DMF     H7 2025   0.207   0.639  -0.177 -1.0024  2.7350 -1.4039
  129DMF     C1 2026   2.818   1.350   1.502 -0.6150 -0.1074  0.4009
  129DMF     N1 2027   2.955   1.409   1.487  0.3108 -0.1738  0.1213
  129DMF     C2 2028   3.052   1.336   1.409 -0.0464 -0.3995  0.1446
  129DMF     C3 2029   2.968   1.541   1.526  0.4286  0.4155 -0.3963
  129DMF     O1 2030   2.881   1.606   1.575 -0.9595 -0.2908 -0.1652
  129DMF     H1 2031   2.746   1.417   1.453  0.7912  0.4378 -0.9711
  129DMF     H2 2032   2.791   1.373   1.606  0.3834  0.1103  0.6148
  129DMF     H3 2033   2.814   1.244   1.475 -3.7511  0.0445  0.0640
  129DMF     H4 2034   3.151   1.350   1.455  0.2395 -0.7669 -0.3477
  129DMF     H5 2035   3.057   1.359   1.302  1.8050 -1.0058  0.0796
  129DMF     H6 2036   3.019   1.231   1.413 -1.6083  0.1273  1.6488
  129DMF     H7 2037   3.068   1.584   1.506  0.6676  0.4297  0.7519
  130DMF     C1 2038   2.414   2.844   2.240  0.2998 -0.3766 -0.5913
  130DMF     N1 2039   2.529   2.936   2.251  0.1580  0.1741  0.6913
  130DMF     C2 2040   2.660   2.885   2.285  0.4910 -0.4995  0.0562
  130DMF     C3 2041   2.513   3.077   2.240  0.5711  0.4610 -0.2326
  130DMF     O1 2042   2.406   3.128   2.210 -0.1142 -0.3340 -0.3331
  130DMF     H1 2043   2.459   2.757   2.189  0.2154  0.5421 -2.2786
  130DMF     H2 2044   2.337   2.894   2.180 -0.8412  1.0502  2.0016
  130DMF     H3 2045   2.388   2.811   2.341 -0.7226 -0.5079 -0.8911
  130DMF     H4 2046   2.690   2.929   2.380  1.6983  2.3830 -1.5759
  130DMF     H5 2047   2.724   2.905   2.198  1.5517  0.8934  1.1244
  130DMF     H6 2048   2.661   2.776   2.296 -0.7572 -0.6955 -1.5810
  130DMF     H7 2049   2.603   3.132   2.272  1.0269 -1.5636  2.1121
  131DMF     C1 2050   2.466   0.080   2.233  0.4331  0.4443 -0.6227
  131DMF     N1 2051   2.326   0.118   2.247  0.5241  0.1682  0.0190
  131DMF     C2 2052   2.224   0.011   2.273 -0.2978 -0.1643  0.0635
  131DMF     C3 2053   2.293   0.256   2.258  0.5501 -0.8888 -0.1213
  131DMF     O1 2054   2.373   0.344   2.241 -0.3254  0.0062  0.6047
  131DMF     H1 2055   2.466  -0.026   2.204 -0.6498  0.7238 -1.7068
  131DMF     H2 2056   2.518   0.083   2.329 -1.3889  0.1314  0.3968
  131DMF     H3 2057   2.520   0.148   2.166 -0.2106  0.6891 -0.9060
  131DMF     H4 2058   2.179   0.016   2.373  1.0238  0.4115  0.6436
  131DMF     H5 2059   2.276  -0.086   2.266 -1.3688 -0.7343 -0.0990
  131DMF     H6 2060   2.149   0.017   2.194  1.1714 -0.5057 -1.3814
  131DMF     H7 2061   2.187   0.273   2.286  0.8604  2.2901 -0.7340
  132DMF     C1 2062   0.734   2.577   0.227  0.1504 -0.6040 -0.7266
  132DMF     N1 2063   0.677   2.507   0.344  0.7387 -1.0861 -0.1283
  132DMF     C2 2064   0.755   2.399   0.402  0.4875 -0.3689  0.3895
  132DMF     C3 2065   0.541   2.548   0.389  0.4288 -0.1045 -0.0417
  132DMF     O1 2066   0.483   2.651   0.349 -0.4851  0.1567  0.0299
  132DMF     H1 2067   0.673   2.645   0.166 -0.0612 -0.9130 -0.8639
  132DMF     H2 2068   0.771   2.498   0.161 -1.1902 -1.3557 -0.5979
  132DMF     H3 2069   0.818   2.641   0.257 -0.9617  0.6247 -0.1499
  132DMF     H4 2070   0.741   2.319   0.328 -0.1076  1.1058 -1.1565
  132DMF     H5 2071   0.711   2.361   0.494 -0.6717 -0.9915 -0.4046
  132DMF     H6 2072   0.861   2.427   0.400  0.0479  1.5338 -4.0373
  132DMF     H7 2073   0.492   2.488   0.468  0.9913  1.9598  1.9042
  133DMF     C1 2074   0.633   1.105   3.523  0.4409 -0.3512 -0.3704
  133DMF     N1 2075   0.496   1.079   3.486 -0.8140  0.0727  0.1184
  133DMF     C2 2076   0.397   1.095   3.592  0.5801  0.5412 -0.1848
  133DMF     C3 2077   0.465   1.093   3.346  0.4151  0.7744 -0.5797
  133DMF     O1 2078   0.543   1.118   3.254 -0.7628  0.0512 -1.0538
  133DMF     H1 2079   0.638   1.148   3.624  1.3434 -1.0907 -0.0938
  133DMF     H2 2080   0.689   1.171   3.455 -0.3348  1.7477  0.9673
  133DMF     H3 2081   0.695   1.015   3.522  0.8389 -0.1117 -4.3190
  133DMF     H4 2082   0.411   1.201   3.615  0.0789  0.6275 -0.2651
  133DMF     H5 2083   0.411   1.018   3.669 -4.0001 -0.5014 -0.2418
  133DMF     H6 2084   0.295   1.080   3.553 -0.0630  2.9723  0.4769
  133DMF     H7 2085   0.355   1.088   3.335  0.1310  1.4450  1.6177
  134DMF     C1 2086   3.032   2.669   0.663 -0.2514 -0.4901 -0.0577
  134DMF     N1 2087   2.897   2.684   0.738 -0.1732 -0.2061 -0.2790
  134DMF     C2 2088   2.819   2.560   0.744  0.1060  0.1004  0.1850
  134DMF     C3 2089   2.838   2.812   0.766 -0.1400  0.2329  0.1619
  134DMF     O1 2090   2.894   2.917   0.757  0.1473  0.1235 -0.6562
  134DMF     H1 2091   3.034   2.713   0.562  0.2469 -1.4448 -0.4590
  134DMF     H2 2092   3.076   2.569   0.656  0.5497 -0.0156 -2.2106
  134DMF     H3 2093   3.098   2.721   0.733  0.3734 -0.7955 -0.4157
  134DMF     H4 2094   2.811   2.510   0.842 -0.2965  1.9271  1.0970
  134DMF     H5 2095   2.869   2.484   0.683 -1.3121  1.3456 -2.6552
  134DMF     H6 2096   2.725   2.581   0.691  1.1961  0.7261 -1.5063
  134DMF     H7 2097   2.735   2.810   0.806 -0.7778  3.4399 -1.1882
  135DMF     C1 2098   0.176   0.547   2.747 -0.0427 -1.1506 -0.1290
  135DMF     N1 2099   0.326   0.558   2.733 -0.1986 -0.5557 -0.4643
  135DMF     C2 2100   0.406   0.637   2.829 -0.5842  0.4466  0.5090
  135DMF     C3 2101   0.392   0.531   2.617  0.0735  0.3604 -0.2928
  135DMF     O1 2102   0.336   0.500   2.512 -0.5135  0.5184  0.5088
  135DMF     H1 2103   0.137   0.595   2.838  1.7002  0.2149 -0.0912
  135DMF     H2 2104   0.137   0.445   2.730 -0.8991 -0.6791 -1.1038
  135DMF     H3 2105   0.133   0.597   2.659  0.1758 -0.1843  0.3046
  135DMF     H4 2106   0.460   0.559   2.884 -0.0981  0.3809 -0.0592
  135DMF     H5 2107   0.346   0.688   2.905 -1.0122  0.0444  0.4436
  135DMF     H6 2108   0.474   0.710   2.784 -0.4312 -0.2214 -0.3757
  135DMF     H7 2109   0.501   0.541   2.631  0.1054 -1.4718  0.8758
  136DMF     C1 2110   1.202   0.695   1.043 -0.6081  0.2034  0.0135
  136DMF     N1 2111   1.161   0.614   0.929  0.1164 -0.6352 -0.1914
  136DMF     C2 2112   1.081   0.486   0.952 -0.1650 -0.4674  0.5632
  136DMF     C3 2113   1.181   0.668   0.801 -0.5534  0.7512 -0.2286
  136DMF     O1 2114   1.237   0.774   0.781 -0.1554 -0.3192 -1.0428
  136DMF     H1 2115   1.128   0.767   1.080 -0.8223  0.0445 -0.1051
  136DMF     H2 2116   1.298   0.747   1.030 -0.5615 -0.3501 -2.0470
  136DMF     H3 2117   1.208   0.624   1.125 -2.4287 -0.3915 -0.3636
  136DMF     H4 2118   1.150   0.401   0.952  1.2917  0.6896 -0.5505
  136DMF     H5 2119   1.006   0.470   0.874 -0.3639 -0.4933  0.7599
  136DMF     H6 2120   1.028   0.489   1.048 -0.0845 -2.6651  0.6855
  136DMF     H7 2121   1.138   0.607   0.720  0.7180 -0.1550 -0.2388
  137DMF     C1 2122   3.233   2.968   3.038 -0.4674 -0.5493 -0.1580
  137DMF     N1 2123   3.334   2.897   2.964  0.5754  0.5537  0.0567
  137DMF     C2 2124   3.427   2.971   2.882  0.4925  0.5650 -0.4128
  137DMF     C3 2125   3.347   2.759   2.972  0.2265  0.4133 -1.0219
  137DMF     O1 2126   3.281   2.676   3.041 -0.1424  0.0121  0.0488
  137DMF     H1 2127   3.207   2.902   3.121 -0.3010 -0.2029  0.1687
  137DMF     H2 2128   3.155   2.991   2.964  0.6506  1.8816 -0.6436
  137DMF     H3 2129   3.266   3.057   3.093 -1.5757 -0.0558 -0.2634
  137DMF     H4 2130   3.511   2.998   2.948  1.0982 -1.5061 -0.3001
  137DMF     H5 2131   3.381   3.068   2.862  0.1887  0.4734 -0.1540
  137DMF     H6 2132   3.465   2.920   2.792  1.4067  0.3896  0.0626
  137DMF     H7 2133   3.436   2.729   2.913  2.2390  1.0010  1.6017
  138DMF     C1 2134   1.257   1.903   3.025 -0.3257  0.2491  0.3817
  138DMF     N1 2135   1.181   2.027   3.038 -0.1375 -0.1432  0.0540
  138DMF     C2 2136   1.243   2.148   2.976 -0.1982  0.5205 -0.1169
  138DMF     C3 2137   1.054   2.038   3.105 -0.2583  0.0764  0.3713
  138DMF     O1 2138   0.996   1.934   3.147  1.0390 -0.2047  0.1498
  138DMF     H1 2139   1.299   1.893   2.924  0.9439 -0.7001  0.9865
  138DMF     H2 2140   1.184   1.821   3.032 -0.5949  0.4792  0.3116
  138DMF     H3 2141   1.341   1.892   3.094  1.0894 -0.9990 -1.4984
  138DMF     H4 2142   1.263   2.133   2.869 -0.1478  0.3562 -0.0836
  138DMF     H5 2143   1.341   2.163   3.023 -0.0134  0.6531 -0.5316
  138DMF     H6 2144   1.180   2.235   2.999 -0.7999 -0.3617  1.6005
  138DMF     H7 2145   1.007   2.138   3.111  0.7642  0.6552 -0.9493
  139DMF     C1 2146   2.415   0.580   1.110 -0.8696  0.6701 -0.0919
  139DMF     N1 2147   2.561   0.576   1.123 -0.5556  0.2983 -0.4800
  139DMF     C2 2148   2.630   0.454   1.170 -0.3984 -0.2803 -0.3174
  139DMF     C3 2149   2.647   0.688   1.090  0.2529 -0.3157 -0.2056
  139DMF     O1 2150   2.603   0.795   1.055 -0.0500  0.3851 -0.3189
  139DMF     H1 2151   2.375   0.480   1.088  1.8051 -0.9142  1.9618
  139DMF     H2 2152   2.395   0.651   1.028  0.7485  0.0447 -1.0516
  139DMF     H3 2153   2.376   0.623   1.203 -3.1917  1.8852 -1.6017
  139DMF     H4 2154   2.624   0.374   1.094  2.9518  0.5545 -1.5387
  139DMF     H5 2155   2.589   0.415   1.263 -2.0913  0.1164 -0.8700
  139DMF     H6 2156   2.738   0.469   1.183 -0.2181 -2.0350  0.3828
  139DMF     H7 2157   2.754   0.661   1.088  0.4305  0.3703 -0.2738
  140DMF     C1 2158   1.406   2.206   3.504 -0.4282 -0.3074  0.2005
  140DMF     N1 2159   1.464   2.233   3.645  0.2256 -0.2341  1.0129
  140DMF     C2 2160   1.514   2.128   3.714 -0.4930 -0.0067 -0.9729
  140DMF     C3 2161   1.472   2.365   3.698  0.0729  0.0157  0.3016
  140DMF     O1 2162   1.434   2.465   3.637 -0.3997  0.2702  0.0530
  140DMF     H1 2163   1.302   2.173   3.519 -0.6278  0.5173  0.6913
  140DMF     H2 2164   1.466   2.128   3.457  0.2425  0.7315 -0.6903
  140DMF     H3 2165   1.406   2.292   3.436  1.0987 -0.9491 -0.6344
  140DMF     H4 2166   1.623   2.139   3.723 -0.4309 -1.3039  0.1450
  140DMF     H5 2167   1.503   2.032   3.662 -2.2231 -0.9115  0.9823
  140DMF     H6 2168   1.459   2.116   3.808 -0.4430 -1.4722 -1.1118
  140DMF     H7 2169   1.506   2.364   3.803 -0.7341 -0.5350  0.5553
  141DMF     C1 2170   1.145   2.102   0.874 -0.2350  0.4657 -0.5640
  141DMF     N1 2171   1.278   2.069   0.950 -0.2549  0.2763 -0.5956
  141DMF     C2 2172   1.341   1.944   0.918  0.0228  0.4284  0.2686
  141DMF     C3 2173   1.363   2.175   0.998  0.7326  0.0732 -0.2602
  141DMF     O1 2174   1.337   2.289   0.968 -0.3729 -0.0872 -0.1631
  141DMF     H1 2175   1.132   2.211   0.870 -1.8136  0.3676  1.0547
  141DMF     H2 2176   1.066   2.064   0.940  1.3150 -2.8328 -0.4931
  141DMF     H3 2177   1.149   2.047   0.779 -2.5881 -1.2977  0.2861
  141DMF     H4 2178   1.266   1.868   0.895  2.2076 -1.5671 -0.4827
  141DMF     H5 2179   1.404   1.907   1.000 -0.0270  0.2079  0.2060
  141DMF     H6 2180   1.408   1.959   0.832 -1.6885 -0.3322 -1.2214
  141DMF     H7 2181   1.445   2.147   1.066  0.1502  1.1451  0.9142
  142DMF     C1 2182   2.583   1.156   0.468  0.5940 -0.5282 -0.0453
  142DMF     N1 2183   2.509   1.062   0.377 -0.0970 -0.3150 -1.2127
  142DMF     C2 2184   2.586   0.952   0.317  0.2013  0.4920  0.1685
  142DMF     C3 2185   2.371   1.069   0.357 -0.2077  0.0845 -0.5062
  142DMF     O1 2186   2.298   1.143   0.420 -0.0235  0.1230  0.2805
  142DMF     H1 2187   2.687   1.123   0.463  0.4349 -1.0874  0.3058
  142DMF     H2 2188   2.531   1.156   0.565 -0.0910  1.9179 -0.3711
  142DMF     H3 2189   2.578   1.255   0.421  1.0929 -0.8979 -0.8840
  142DMF     H4 2190   2.559   0.909   0.220 -0.6401 -1.2159  1.1278
  142DMF     H5 2191   2.591   0.871   0.390 -0.3656 -0.7746 -1.1690
  142DMF     H6 2192   2.689   0.988   0.314  0.6393 -0.6784  0.6359
  142DMF     H7 2193   2.334   1.006   0.274 -0.4346  0.5789 -0.7826
  143DMF     C1 2194   1.098   1.294   2.979 -0.3589 -0.0192 -1.2060
  143DMF     N1 2195   1.213   1.224   3.042  0.1503 -0.4624  0.8168
  143DMF     C2 2196   1.257   1.091   2.982 -0.5110  0.4626 -0.4066
  143DMF     C3 2197   1.246   1.263   3.172 -0.7875 -0.7029 -0.8788
  143DMF     O1 2198   1.194   1.359   3.227 -0.1198 -0.0864 -0.2052
  143DMF     H1 2199   1.096   1.402   3.001 -1.0950  0.2985 -2.7286
  143DMF     H2 2200   1.008   1.247   3.021  0.7128 -0.6276  0.4766
  143DMF     H3 2201   1.098   1.282   2.870 -0.7473 -1.6570 -1.0356
  143DMF     H4 2202   1.223   1.003   3.038  0.5567 -0.1345 -0.6817
  143DMF     H5 2203   1.367   1.090   2.980 -0.4928 -2.3979 -0.2109
  143DMF     H6 2204   1.212   1.080   2.883 -1.5270  2.2866 -0.1638
  143DMF     H7 2205   1.312   1.195   3.230  2.1145  0.3427 -2.8473
  144DMF     C1 2206   0.271   1.427   3.402 -0.1936  0.3471  0.2541
  144DMF     N1 2207   0.219   1.537   3.500  0.0983 -0.1288  0.1456
  144DMF     C2 2208   0.225   1.679   3.451  0.2514 -0.0882 -0.4085
  144DMF     C3 2209   0.207   1.509   3.633  0.1920  0.8132 -0.4825
  144DMF     O1 2210   0.236   1.400   3.682 -0.3063 -0.3692 -0.0697
  144DMF     H1 2211   0.343   1.358   3.446 -1.3933 -0.2255  1.3440
  144DMF     H2 2212   0.303   1.479   3.310  0.9318  0.4109  0.6697
  144DMF     H3 2213   0.178   1.373   3.385  0.3709  0.1375 -2.3899
  144DMF     H4 2214   0.189   1.745   3.531  1.6729  1.4791 -1.0188
  144DMF     H5 2215   0.155   1.694   3.369 -0.3664  1.9801  0.4597
  144DMF     H6 2216   0.325   1.722   3.435  0.5672 -1.1391 -1.2896
  144DMF     H7 2217   0.185   1.601   3.690  1.0985  1.6224 -1.3827
  145DMF     C1 2218   1.736   2.710   0.970 -0.1053  0.3746 -0.6125
  145DMF     N1 2219   1.658   2.715   1.091  0.3673 -0.4405  0.7022
  145DMF     C2 2220   1.604   2.594   1.134  0.1457 -0.4021  0.1008
  145DMF     C3 2221   1.618   2.834   1.154  0.2770 -0.8067  0.7847
  145DMF     O1 2222   1.666   2.940   1.114  0.1450 -0.8751  0.0945
  145DMF     H1 2223   1.763   2.606   0.947 -1.0160 -0.1202  0.4951
  145DMF     H2 2224   1.836   2.745   0.997  0.8402 -0.4657 -2.8880
  145DMF     H3 2225   1.690   2.761   0.884 -1.2899  3.6388  1.8489
  145DMF     H4 2226   1.509   2.595   1.078 -0.1984 -1.5330  0.6558
  145DMF     H5 2227   1.598   2.592   1.243  0.7949  1.7947  0.2001
  145DMF     H6 2228   1.674   2.520   1.094 -0.3030 -0.1364 -1.2006
  145DMF     H7 2229   1.549   2.820   1.240 -2.9246 -2.0934 -1.8962
  146DMF     C1 2230   0.149   1.235   2.922 -0.0975 -0.2417  0.2844
  146DMF     N1 2231   0.276   1.183   2.872 -0.3349  0.5664  0.6087
  146DMF     C2 2232   0.312   1.195   2.739  0.3709  0.5040 -0.0483
  146DMF     C3 2233   0.337   1.077   2.951 -0.0185 -0.1383  0.2000
  146DMF     O1 2234   0.289   1.052   3.060  0.8819  0.1666  0.1730
  146DMF     H1 2235   0.137   1.228   3.031 -1.6018  1.5542  0.2700
  146DMF     H2 2236   0.072   1.179   2.868  1.0355 -1.4020 -0.1376
  146DMF     H3 2237   0.135   1.343   2.904 -0.6854  0.1161  2.7319
  146DMF     H4 2238   0.302   1.295   2.695  0.2670  0.0499 -1.0804
  146DMF     H5 2239   0.251   1.125   2.680 -0.8106  1.4757 -0.0098
  146DMF     H6 2240   0.418   1.177   2.720  0.5912  1.2783  0.4221
  146DMF     H7 2241   0.419   1.018   2.907 -0.0425 -0.7029  0.9077
  147DMF     C1 2242   1.077   2.482   0.712  0.0197 -0.2381 -0.0215
  147DMF     N1 2243   1.037   2.561   0.590 -0.2391  0.0841 -0.4127
  147DMF     C2 2244   0.957   2.680   0.617 -0.3162  0.5078  0.2167
  147DMF     C3 2245   1.089   2.527   0.469 -0.3201  0.6710 -0.0719
  147DMF     O1 2246   1.172   2.439   0.452 -0.5109  0.2148 -0.5238
  147DMF     H1 2247   1.040   2.515   0.809  0.7520 -1.5347  0.7090
  147DMF     H2 2248   1.186   2.476   0.723 -0.1145 -1.6108  0.6575
  147DMF     H3 2249   1.049   2.379   0.684  3.8618 -0.7724 -2.2713
  147DMF     H4 2250   0.899   2.663   0.709 -2.1378 -3.4314 -1.5117
  147DMF     H5 2251   0.885   2.696   0.536  1.9881  0.8382 -1.8118
  147DMF     H6 2252   1.021   2.768   0.628 -0.4683  0.6310  0.1086
  147DMF     H7 2253   1.038   2.568   0.381 -1.7449 -1.9315 -0.5320
  148DMF     C1 2254   0.935   3.155   0.010  0.5202 -0.3240  0.2874
  148DMF     N1 2255   1.036   3.067  -0.039 -0.5384  0.2301  0.5552
  148DMF     C2 2256   1.122   3.108  -0.151  0.3522  0.4929  0.1031
  148DMF     C3 2257   1.028   2.930  -0.013  1.2380  0.5257 -0.1269
  148DMF     O1 2258   0.957   2.882   0.075 -0.1182  0.4340  0.4501
  148DMF     H1 2259   0.917   3.152   0.118  2.8843 -0.0515  0.7067
  148DMF     H2 2260   0.854   3.146  -0.064  2.0576  1.6782 -1.7328
  148DMF     H3 2261   0.974   3.256  -0.010 -1.6821  1.2207  3.3734
  148DMF     H4 2262   1.151   3.213  -0.145  1.9217  0.1544 -1.0297
  148DMF     H5 2263   1.084   3.076  -0.249  2.2766  0.4599 -0.6422
  148DMF     H6 2264   1.217   3.053  -0.148  0.7849  1.0959 -1.7327
  148DMF     H7 2265   1.094   2.872  -0.081 -0.4711 -0.5752 -0.8618
  149DMF     C1 2266   3.110   0.315   2.516 -0.6347 -0.2356 -0.7317
  149DMF     N1 2267   3.131   0.419   2.616 -0.1335 -0.8745  0.4988
  149DMF     C2 2268   3.020   0.518   2.623  0.4480 -0.4537 -0.1035
  149DMF     C3 2269   3.222   0.398   2.725  0.3100 -0.9157 -0.1166
  149DMF     O1 2270   3.303   0.306   2.717 -0.1203 -0.0129  0.4706
  149DMF     H1 2271   3.007   0.285   2.537 -0.8068  1.8777  1.7408
  149DMF     H2 2272   3.176   0.228   2.517 -0.5121 -0.1416 -0.3537
  149DMF     H3 2273   3.124   0.349   2.412 -1.7193 -0.3736 -0.9197
  149DMF     H4 2274   3.056   0.616   2.657 -1.9938  0.7679 -0.8851
  149DMF     H5 2275   2.961   0.487   2.710  1.6422  0.4536  1.0607
  149DMF     H6 2276   2.967   0.534   2.528  1.3616  3.2761 -0.0696
  149DMF     H7 2277   3.206   0.472   2.806 -2.0830  0.5463 -1.8816
  150DMF     C1 2278   1.002   2.820   3.467  0.4077  0.4177 -0.1254
  150DMF     N1 2279   0.898   2.777   3.560  1.2354 -0.1356 -0.0336
  150DMF     C2 2280   0.759   2.833   3.542 -0.5278 -0.1441 -0.3142
  150DMF     C3 2281   0.915   2.660   3.634 -0.0926  0.2510 -0.3580
  150DMF     O1 2282   1.018   2.601   3.629 -0.2721 -0.3937  0.3712
  150DMF     H1 2283   0.978   2.917   3.420 -0.2657  0.1953 -0.2369
  150DMF     H2 2284   1.009   2.749   3.384 -1.6270  0.4069 -0.3149
  150DMF     H3 2285   1.102   2.825   3.512 -0.0803 -2.0843  1.3130
  150DMF     H4 2286   0.723   2.862   3.642 -1.0986  2.9714 -1.3823
  150DMF     H5 2287   0.685   2.764   3.500  0.5898 -0.6098 -1.5566
  150DMF     H6 2288   0.761   2.927   3.486  2.2814  1.2356  1.9628
  150DMF     H7 2289   0.822   2.637   3.689  0.3681 -1.9289 -0.4675
  151DMF     C1 2290   1.162   1.177   0.638  0.0659 -0.4652 -0.2997
  151DMF     N1 2291   1.035   1.183   0.719  0.0992 -0.4420 -0.4622
  151DMF     C2 2292   1.029   1.286   0.831  0.0588  0.0637  0.2316
  151DMF     C3 2293   0.918   1.103   0.685 -0.3420 -0.5014 -0.2752
  151DMF     O1 2294   0.905   1.022   0.595  0.3136  0.5350  0.5295
  151DMF     H1 2295   1.232   1.132   0.710 -0.5898  0.7655  1.1535
  151DMF     H2 2296   1.196   1.277   0.607 -0.9156 -0.5640 -1.7371
  151DMF     H3 2297   1.144   1.110   0.554 -1.5732  1.2886 -1.3805
  151DMF     H4 2298   0.990   1.249   0.927  2.3734 -2.7718  0.1516
  151DMF     H5 2299   0.966   1.366   0.791  0.5732  0.3743  0.0350
  151DMF     H6 2300   1.129   1.330   0.844 -0.6070  1.5558  0.4086
  151DMF     H7 2301   0.838   1.114   0.761  0.2656 -1.9134  0.5800
  152DMF     C1 2302   0.341   2.056   3.042  0.3516 -1.0002 -0.1077
  152DMF     N1 2303   0.236   2.091   3.142 -0.1485  0.9641  0.5237
  152DMF     C2 2304   0.175   1.981   3.216  0.0201 -0.6525 -0.2313
  152DMF     C3 2305   0.188   2.223   3.166 -0.2794 -0.3199  0.0870
  152DMF     O1 2306   0.244   2.322   3.121 -0.1430 -0.2789  0.2136
  152DMF     H1 2307   0.289   2.003   2.961 -1.3691 -1.2549  1.1503
  152DMF     H2 2308   0.425   1.996   3.079  2.6937  2.2551  0.1442
  152DMF     H3 2309   0.393   2.146   3.005  0.2731 -0.8822  0.0678
  152DMF     H4 2310   0.093   1.939   3.157 -1.5244  1.2419  0.5465
  152DMF     H5 2311   0.130   2.024   3.306  1.0212 -0.3616  0.1435
  152DMF     H6 2312   0.253   1.904   3.218  0.5002 -0.1497  0.6301
  152DMF     H7 2313   0.108   2.225   3.242  0.6788 -2.5302  1.2005
  153DMF     C1 2314   2.748   0.764   2.675 -0.0835  0.0970  0.5378
  153DMF     N1 2315   2.742   0.823   2.810  0.1260 -0.3443  0.1555
  153DMF     C2 2316   2.661   0.946   2.819  0.2053 -0.1456 -0.4730
  153DMF     C3 2317   2.799   0.749   2.913  0.6983  0.4361  0.0823
  153DMF     O1 2318   2.834   0.632   2.903 -0.0030 -0.3249 -0.2060
  153DMF     H1 2319   2.645   0.747   2.641  0.0772  1.2997 -0.5753
  153DMF     H2 2320   2.806   0.671   2.675  1.2909  0.9419  1.5625
  153DMF     H3 2321   2.803   0.835   2.613 -3.5829  2.9620  0.5505
  153DMF     H4 2322   2.599   0.959   2.729  1.2401  0.1002 -1.1497
  153DMF     H5 2323   2.723   1.035   2.833  1.1318 -0.4959 -2.3138
  153DMF     H6 2324   2.591   0.938   2.904 -0.4179  0.7043 -0.9027
  153DMF     H7 2325   2.801   0.806   3.008 -0.4487 -0.1553  0.4707
  154DMF     C1 2326   1.352   2.819   0.146 -0.3428 -0.7123 -0.7825
  154DMF     N1 2327   1.311   2.707   0.061 -0.1482 -0.3485 -0.1921
  154DMF     C2 2328   1.253   2.579   0.124 -0.1988 -0.1435 -0.4348
  154DMF     C3 2329   1.322   2.713  -0.078  1.2595 -0.1595 -1.2030
  154DMF     O1 2330   1.360   2.812  -0.132  0.3357 -0.0969  0.0919
  154DMF     H1 2331   1.322   2.796   0.249  1.3392  1.5846  0.2617
  154DMF     H2 2332   1.300   2.912   0.120 -0.5382 -0.0681  1.8367
  154DMF     H3 2333   1.459   2.842   0.140  0.1799 -2.7145  0.6783
  154DMF     H4 2334   1.266   2.485   0.069 -0.5690 -1.1066  1.0656
  154DMF     H5 2335   1.144   2.585   0.128 -0.4327 -2.3521 -2.4907
  154DMF     H6 2336   1.295   2.563   0.225 -0.1096 -1.9175 -0.7379
  154DMF     H7 2337   1.274   2.628  -0.131 -0.2677  0.1408 -0.3290
  155DMF     C1 2338   1.041   0.766   3.680  0.6555 -0.3429 -0.2296
  155DMF     N1 2339   0.928   0.712   3.758 -0.4852 -0.0968 -0.2371
  155DMF     C2 2340   0.952   0.666   3.895 -0.2975 -0.4666  0.0579
  155DMF     C3 2341   0.797   0.697   3.701  0.8480 -0.4383  0.2026
  155DMF     O1 2342   0.778   0.740   3.587 -0.3073  0.3618 -0.2771
  155DMF     H1 2343   1.038   0.875   3.682  3.2643 -0.2579  1.2649
  155DMF     H2 2344   1.023   0.737   3.576 -0.6662 -0.9992  0.1651
  155DMF     H3 2345   1.138   0.737   3.723  1.0594 -0.5690 -1.2957
  155DMF     H4 2346   0.858   0.653   3.950 -0.7710 -0.8068 -0.8168
  155DMF     H5 2347   1.001   0.745   3.953  0.2741 -0.5588 -0.2951
  155DMF     H6 2348   1.012   0.574   3.903  0.0257 -0.3048 -0.4648
  155DMF     H7 2349   0.720   0.650   3.764 -1.3086  1.8533 -0.6672
  156DMF     C1 2350   0.546   1.887   0.337  0.0361  0.1727  0.2758
  156DMF     N1 2351   0.618   1.937   0.228  0.2399 -0.2805  0.1421
  156DMF     C2 2352   0.535   2.012   0.124 -0.1804 -0.2011  0.4527
  156DMF     C3 2353   0.759   1.931   0.225 -0.7075  0.2583  0.3537
  156DMF     O1 2354   0.827   1.882   0.313  0.6409 -0.1796 -0.2784
  156DMF     H1 2355   0.564   1.954   0.423 -1.2262  1.0695 -0.1324
  156DMF     H2 2356   0.585   1.793   0.377  1.0964 -0.3949 -2.0264
  156DMF     H3 2357   0.437   1.883   0.326  0.0085  0.1771  0.5254
  156DMF     H4 2358   0.494   1.938   0.054  1.2936  0.0765 -0.7326
  156DMF     H5 2359   0.588   2.091   0.070  0.1154 -0.8978 -0.3057
  156DMF     H6 2360   0.446   2.053   0.173  1.3948  0.5324  2.7552
  156DMF     H7 2361   0.800   1.981   0.135  0.7242  1.9062  1.8839
  157DMF     C1 2362   0.970   2.653   1.314 -0.2862  0.9087 -0.0777
  157DMF     N1 2363   1.068   2.642   1.208  0.1680 -0.3980 -0.3743
  157DMF     C2 2364   1.032   2.588   1.083  0.1581  0.5282  0.6252
  157DMF     C3 2365   1.205   2.689   1.220 -0.2269  0.0566 -0.2957
  157DMF     O1 2366   1.254   2.731   1.324  0.1001  0.0732  0.5134
  157DMF     H1 2367   0.904   2.739   1.304  1.3312  2.0131 -1.4946
  157DMF     H2 2368   1.016   2.655   1.414  0.1301 -1.1455 -0.2048
  157DMF     H3 2369   0.919   2.558   1.296  4.1744 -1.7732  0.5112
  157DMF     H4 2370   1.002   2.674   1.022  1.4749 -0.3746 -1.3620
  157DMF     H5 2371   0.942   2.527   1.097  0.7929 -0.7536 -0.7600
  157DMF     H6 2372   1.111   2.529   1.034  0.1845  1.2728 -0.2374
  157DMF     H7 2373   1.259   2.676   1.124 -0.3911 -2.9365 -0.0336
  158DMF     C1 2374   2.596   2.010   0.582 -0.9221  0.0160  0.2006
  158DMF     N1 2375   2.564   1.973   0.728 -0.3950  0.3481  0.1174
  158DMF     C2 2376   2.496   1.849   0.764 -0.4675  0.1213 -0.2772
  158DMF     C3 2377   2.592   2.058   0.831  0.2078 -0.2016 -0.2387
  158DMF     O1 2378   2.648   2.162   0.807 -0.2385  0.3891 -0.2732
  158DMF     H1 2379   2.509   1.984   0.520 -0.8846  0.4875 -0.0594
  158DMF     H2 2380   2.675   1.941   0.551 -2.2711 -1.4517 -0.0614
  158DMF     H3 2381   2.624   2.115   0.564  0.1541 -0.2678  0.1942
  158DMF     H4 2382   2.432   1.868   0.851 -2.0928  0.5486 -1.5420
  158DMF     H5 2383   2.579   1.783   0.794 -0.4277 -0.2854 -1.2500
  158DMF     H6 2384   2.445   1.805   0.677  0.5502  0.5066 -1.0747
  158DMF     H7 2385   2.565   2.019   0.931  0.1912  1.4996  0.4208
  159DMF     C1 2386   2.574   2.294   2.369 -0.5259  0.2221  0.0612
  159DMF     N1 2387   2.677   2.293   2.265  0.6697  0.4393  0.7235
  159DMF     C2 2388   2.736   2.425   2.236 -0.3006 -0.0446  0.2223
  159DMF     C3 2389   2.742   2.169   2.225 -0.3423 -1.0403 -0.6976
  159DMF     O1 2390   2.696   2.058   2.258  0.2381 -0.3379  0.1983
  159DMF     H1 2391   2.589   2.361   2.454  0.2150 -0.2067  0.2782
  159DMF     H2 2392   2.571   2.195   2.418  0.2616 -0.7937 -1.8567
  159DMF     H3 2393   2.481   2.308   2.313  0.5313  0.8512 -1.5854
  159DMF     H4 2394   2.822   2.423   2.167 -0.7190 -0.0929 -0.3003
  159DMF     H5 2395   2.788   2.465   2.324 -0.0795  0.1793 -0.0106
  159DMF     H6 2396   2.665   2.494   2.188  0.5053  1.5359  1.2611
  159DMF     H7 2397   2.835   2.186   2.167  0.1760  1.3486  0.7568
  160DMF     C1 2398   2.432   0.946   0.806  0.0136 -0.1248 -0.2289
  160DMF     N1 2399   2.316   0.947   0.718  0.0036  0.6675  0.1853
  160DMF     C2 2400   2.295   0.822   0.636  0.4448  0.3903  0.2350
  160DMF     C3 2401   2.226   1.054   0.722  0.1290  0.1777  1.2101
  160DMF     O1 2402   2.233   1.150   0.794  0.4251  0.1623 -0.3917
  160DMF     H1 2403   2.509   0.889   0.752 -1.0767 -0.3659 -1.5557
  160DMF     H2 2404   2.409   0.895   0.900 -3.7206  2.5619  0.4237
  160DMF     H3 2405   2.468   1.049   0.814  4.2139 -1.4222 -0.9575
  160DMF     H4 2406   2.344   0.839   0.540  0.8211 -0.2233  0.3122
  160DMF     H5 2407   2.188   0.798   0.636  0.6158 -0.4666 -1.6770
  160DMF     H6 2408   2.340   0.727   0.668  0.7929  0.7003  0.6855
  160DMF     H7 2409   2.140   1.040   0.653 -1.4784  1.8489  2.8087
  161DMF     C1 2410   1.953   1.314   1.426  0.6199 -0.1266  0.3716
  161DMF     N1 2411   1.939   1.212   1.525  0.3287  0.4516 -0.1219
  161DMF     C2 2412   2.057   1.135   1.559  0.1009  0.6172  0.0470
  161DMF     C3 2413   1.811   1.164   1.569  0.0224  0.0790 -0.2674
  161DMF     O1 2414   1.709   1.218   1.524  0.1368 -0.4132  0.1399
  161DMF     H1 2415   2.050   1.365   1.432  1.0988 -0.8386 -1.0024
  161DMF     H2 2416   1.869   1.383   1.418 -0.6674 -1.9990 -3.5392
  161DMF     H3 2417   1.954   1.261   1.329  0.5359 -1.9727  1.3507
  161DMF     H4 2418   2.143   1.185   1.605 -0.9711 -0.1498  2.9856
  161DMF     H5 2419   2.084   1.099   1.459  2.1186 -0.7673  1.0552
  161DMF     H6 2420   2.034   1.043   1.615 -2.7726 -0.1859 -2.3048
  161DMF     H7 2421   1.815   1.076   1.635 -2.3258  0.1827  0.0621
  162DMF     C1 2422   0.632   0.520   2.319 -0.1528 -0.0020 -0.5799
  162DMF     N1 2423   0.577   0.388   2.291  0.0790  0.4781  0.0513
  162DMF     C2 2424   0.437   0.368   2.241 -0.2168 -0.2506  0.3589
  162DMF     C3 2425   0.656   0.274   2.315  0.3265 -0.2012 -0.7236
  162DMF     O1 2426   0.771   0.282   2.355 -0.9963 -0.3771  0.8287
  162DMF     H1 2427   0.720   0.523   2.383 -0.4268  0.0316 -0.2038
  162DMF     H2 2428   0.557   0.583   2.368  1.1785  0.2151  1.1900
  162DMF     H3 2429   0.657   0.561   2.220 -0.5990 -0.9509 -1.1044
  162DMF     H4 2430   0.438   0.332   2.137  2.5199  0.1471  0.2291
  162DMF     H5 2431   0.395   0.469   2.240  0.3416 -0.0246 -0.2971
  162DMF     H6 2432   0.377   0.303   2.307 -0.8307 -0.9517 -0.8686
  162DMF     H7 2433   0.605   0.182   2.281 -0.3270  0.9129 -2.8810
  163DMF     C1 2434   2.790   0.566   0.001  0.2668  0.0320 -1.0615
  163DMF     N1 2435   2.825   0.645  -0.115 -0.0301  0.1240 -0.2505
  163DMF     C2 2436   2.969   0.658  -0.163  0.9007 -0.3558  0.6284
  163DMF     C3 2437   2.728   0.714  -0.187  0.1601 -0.7655  0.4642
  163DMF     O1 2438   2.611   0.729  -0.158  0.4761  0.7333  0.2573
  163DMF     H1 2439   2.707   0.500  -0.026 -0.5308 -0.5701  2.5158
  163DMF     H2 2440   2.766   0.635   0.083 -1.7307 -0.5227 -1.1550
  163DMF     H3 2441   2.872   0.497   0.024 -1.6146 -1.5534  1.1210
  163DMF     H4 2442   3.031   0.599  -0.095  1.5751  2.4685  2.5580
  163DMF     H5 2443   2.993   0.764  -0.152  1.9591 -0.4487 -0.7197
  163DMF     H6 2444   2.993   0.628  -0.265 -1.1589  1.1136 -0.3273
  163DMF     H7 2445   2.772   0.746  -0.283  0.8050 -0.4638  0.8580
  164DMF     C1 2446   1.130   1.100   0.057  0.0990 -0.1165 -0.8829
  164DMF     N1 2447   1.101   1.154  -0.070 -0.1277  0.5304  0.5045
  164DMF     C2 2448   0.961   1.166  -0.105  1.3598  0.9967 -0.1237
  164DMF     C3 2449   1.207   1.200  -0.154 -0.0642  0.5068 -0.0840
  164DMF     O1 2450   1.323   1.174  -0.130  0.1195  0.0976  0.1423
  164DMF     H1 2451   1.236   1.086   0.079  0.3231  1.1912 -1.1050
  164DMF     H2 2452   1.076   1.004   0.068 -0.6288  0.4568  0.7744
  164DMF     H3 2453   1.085   1.165   0.134  1.9578 -1.2662  1.2540
  164DMF     H4 2454   0.955   1.150  -0.213 -0.8241  2.4484 -0.2412
  164DMF     H5 2455   0.910   1.262  -0.090  0.1731 -0.0617  2.9027
  164DMF     H6 2456   0.914   1.085  -0.047 -0.5723  1.1543 -1.4364
  164DMF     H7 2457   1.177   1.269  -0.236  1.1266  0.7214 -0.3452
  165DMF     C1 2458   2.154   1.887   0.877  0.1444 -0.1792  0.0583
  165DMF     N1 2459   2.131   1.983   0.771 -0.2621 -0.2629 -0.0579
  165DMF     C2 2460   2.218   2.091   0.760  0.3156  0.4801  0.2654
  165DMF     C3 2461   2.019   1.965   0.689  0.1508 -0.1145  0.1297
  165DMF     O1 2462   1.940   1.878   0.705  0.2019 -0.4734  0.0210
  165DMF     H1 2463   2.057   1.855   0.917 -0.2614  1.2465  0.2512
  165DMF     H2 2464   2.202   1.941   0.959  2.3581 -1.8312 -0.1216
  165DMF     H3 2465   2.226   1.807   0.857  2.2493  2.0857 -1.6709
  165DMF     H4 2466   2.301   2.059   0.695 -0.4700  0.4618 -0.7391
  165DMF     H5 2467   2.247   2.128   0.859 -0.1382  0.2242  0.4903
  165DMF     H6 2468   2.165   2.175   0.712  0.7462  0.4862 -0.2133
  165DMF     H7 2469   2.012   2.046   0.614  0.8283 -1.7868 -1.7683
  166DMF     C1 2470   2.746   1.223   0.114 -0.5502 -0.6896 -0.2419
  166DMF     N1 2471   2.862   1.296   0.180 -0.1357  0.2667 -0.5412
  166DMF     C2 2472   2.992   1.230   0.186  0.1394  0.2679 -0.5235
  166DMF     C3 2473   2.852   1.420   0.248 -0.3965  0.1751  0.3289
  166DMF     O1 2474   2.745   1.480   0.250 -0.3973 -0.0067  0.2855
  166DMF     H1 2475   2.680   1.187   0.194 -0.2427  1.0641  0.8202
  166DMF     H2 2476   2.786   1.131   0.069  1.7643 -0.7813  1.8938
  166DMF     H3 2477   2.693   1.286   0.042  2.5532  3.1267  0.6284
  166DMF     H4 2478   2.984   1.158   0.268 -0.3090 -0.8837 -1.5544
  166DMF     H5 2479   3.072   1.302   0.206 -0.0466  0.3823 -0.1854
  166DMF     H6 2480   3.018   1.180   0.092 -1.0821 -1.7317  0.1729
  166DMF     H7 2481   2.947   1.447   0.298 -1.0095  0.0408  1.5629
  167DMF     C1 2482   2.972   2.128   0.181  0.2207 -0.2705  0.0759
  167DMF     N1 2483   2.869   2.239   0.170 -0.8483 -0.1140 -0.0460
  167DMF     C2 2484   2.834   2.303   0.302  0.0295 -0.3542  0.6212
  167DMF     C3 2485   2.826   2.283   0.044 -0.1404  0.6004 -0.7882
  167DMF     O1 2486   2.877   2.240  -0.058 -0.0441 -0.3492  0.1616
  167DMF     H1 2487   3.072   2.156   0.146  0.7257 -0.7603  1.1057
  167DMF     H2 2488   2.955   2.042   0.115  1.3488  0.4110 -1.1203
  167DMF     H3 2489   2.975   2.099   0.286  0.9664  0.0137  0.1332
  167DMF     H4 2490   2.811   2.231   0.381  0.5981 -0.1796  0.9430
  167DMF     H5 2491   2.740   2.358   0.287 -0.3390 -1.0740  0.2537
  167DMF     H6 2492   2.922   2.364   0.326  1.7378 -2.0993 -0.9964
  167DMF     H7 2493   2.736   2.347   0.044 -0.0890  0.6716 -0.4413
  168DMF     C1 2494   0.387   2.158   3.556  0.1997  0.0772  0.6607
  168DMF     N1 2495   0.317   2.286   3.532 -0.0178 -0.2052 -0.1375
  168DMF     C2 2496   0.380   2.393   3.454 -0.3338  0.4619  0.4372
  168DMF     C3 2497   0.189   2.307   3.587 -0.4134  0.3580 -0.3580
  168DMF     O1 2498   0.139   2.240   3.674  0.1178 -0.0476  0.4814
  168DMF     H1 2499   0.494   2.178   3.572  0.5948 -0.9860 -0.6103
  168DMF     H2 2500   0.376   2.103   3.462  0.5719  0.2797  0.4981
  168DMF     H3 2501   0.341   2.097   3.634  0.8939 -0.7306  0.4391
  168DMF     H4 2502   0.485   2.365   3.444  0.1294  2.0584  0.7349
  168DMF     H5 2503   0.372   2.478   3.522 -0.2465 -0.1540  1.2261
  168DMF     H6 2504   0.329   2.418   3.360 -1.3174  0.9307  1.0938
  168DMF     H7 2505   0.137   2.399   3.553 -0.0409  0.3085 -1.0527
  169DMF     C1 2506   0.877   2.758   2.736 -0.6392  0.2709 -0.2682
  169DMF     N1 2507   0.947   2.888   2.756 -0.4934 -0.3496  0.3050
  169DMF     C2 2508   1.055   2.886   2.859  0.2141 -1.0055  0.3021
  169DMF     C3 2509   0.929   2.994   2.665  0.1601  0.3358  0.2203
  169DMF     O1 2510   0.833   2.992   2.591 -0.5410 -0.2447 -0.3599
  169DMF     H1 2511   0.794   2.768   2.666  0.2948  2.1389 -1.1449
  169DMF     H2 2512   0.836   2.724   2.831  1.4127  2.3376  1.4258
  169DMF     H3 2513   0.946   2.680   2.701 -1.2168  0.4066 -1.7563
  169DMF     H4 2514   0.997   2.862   2.949 -2.3128  2.5123 -0.2552
  169DMF     H5 2515   1.107   2.982   2.871 -0.4202 -0.1829 -2.8812
  169DMF     H6 2516   1.122   2.805   2.828  0.1545 -1.2478  0.8203
  169DMF     H7 2517   1.011   3.069   2.670 -0.4149  1.0221 -0.5173
  170DMF     C1 2518   2.470   2.806   0.070 -0.5795 -0.4134 -0.1384
  170DMF     N1 2519   2.619   2.816   0.084  0.1746  0.4855  0.7860
  170DMF     C2 2520   2.687   2.947   0.087 -0.4622 -0.2278 -0.1515
  170DMF     C3 2521   2.694   2.696   0.081 -0.3908 -0.6293 -0.6406
  170DMF     O1 2522   2.639   2.592   0.062 -0.2128  0.5410  0.2283
  170DMF     H1 2523   2.429   2.750   0.155 -1.4594  0.6898  0.1832
  170DMF     H2 2524   2.449   2.765  -0.029 -0.5136 -0.4161 -0.1509
  170DMF     H3 2525   2.423   2.905   0.072 -1.3276 -0.7553 -0.7445
  170DMF     H4 2526   2.672   3.001  -0.008 -0.2294  0.4926  0.2237
  170DMF     H5 2527   2.794   2.941   0.109 -0.2499  1.4640 -0.6927
  170DMF     H6 2528   2.640   3.000   0.170 -0.4788 -0.4354 -0.0272
  170DMF     H7 2529   2.803   2.707   0.099 -0.7093  2.5244 -0.5009
  171DMF     C1 2530   1.889   2.669   3.585 -0.0618 -1.1573 -0.9399
  171DMF     N1 2531   1.754   2.712   3.623  0.0315  0.0091 -0.6546
  171DMF     C2 2532   1.692   2.824   3.547  0.1643 -0.7110  0.6023
  171DMF     C3 2533   1.682   2.636   3.720 -0.3924 -0.1576  0.4802
  171DMF     O1 2534   1.727   2.537   3.772 -0.4528  0.1666 -0.1241
  171DMF     H1 2535   1.953   2.744   3.634  2.1116 -3.1363 -0.6744
  171DMF     H2 2536   1.900   2.668   3.476  0.8986 -0.4779 -0.8612
  171DMF     H3 2537   1.928   2.573   3.619  1.0908 -0.7577 -1.1006
  171DMF     H4 2538   1.715   2.916   3.601  0.9027 -0.0711 -0.7796
  171DMF     H5 2539   1.583   2.816   3.548 -0.0564  1.5975 -1.0089
  171DMF     H6 2540   1.723   2.832   3.442  0.0017 -0.1283  0.5962
  171DMF     H7 2541   1.581   2.676   3.737  0.0334  0.1162  2.4804
  172DMF     C1 2542   1.438   3.333   3.679  1.1195 -0.4019  0.0041
  172DMF     N1 2543   1.473   3.216   3.748 -0.5558  0.6444  1.0828
  172DMF     C2 2544   1.415   3.192   3.886  1.1736 -0.4872 -0.4569
  172DMF     C3 2545   1.526   3.112   3.678  0.6744  0.0153  1.0044
  172DMF     O1 2546   1.556   3.112   3.560  0.4656 -0.2309  0.2640
  172DMF     H1 2547   1.521   3.368   3.617 -0.6478  0.4018 -1.9704
  172DMF     H2 2548   1.411   3.414   3.748 -0.6067 -1.7693  0.9926
  172DMF     H3 2549   1.354   3.318   3.611 -1.1597  0.7559  2.4575
  172DMF     H4 2550   1.326   3.129   3.877  1.0680 -0.3897 -0.1203
  172DMF     H5 2551   1.382   3.290   3.926  0.2797 -1.4989  1.3792
  172DMF     H6 2552   1.485   3.149   3.958 -0.8806 -0.1253  1.8368
  172DMF     H7 2553   1.523   3.024   3.746 -1.2336 -0.1582  0.7266
  173DMF     C1 2554   0.535   2.548   2.225 -0.5860 -0.2359 -0.0345
  173DMF     N1 2555   0.429   2.649   2.236  0.4530 -0.0287 -0.5415
  173DMF     C2 2556   0.288   2.602   2.257 -0.1430 -0.3483  0.0040
  173DMF     C3 2557   0.456   2.792   2.219 -0.2459  0.6349 -0.5064
  173DMF     O1 2558   0.569   2.836   2.219 -0.0905  0.2798 -0.6759
  173DMF     H1 2559   0.499   2.446   2.207  2.5175 -1.5631  1.0048
  173DMF     H2 2560   0.597   2.538   2.315 -0.1293  4.4652  0.3437
  173DMF     H3 2561   0.598   2.590   2.145 -2.1700 -0.0666 -1.2135
  173DMF     H4 2562   0.256   2.642   2.354  1.7277  0.1641  0.4159
  173DMF     H5 2563   0.291   2.493   2.251 -0.5765 -0.3436 -0.3790
  173DMF     H6 2564   0.215   2.638   2.183 -0.3586  0.3545  0.5481
  173DMF     H7 2565   0.364   2.852   2.228  0.6541  1.7704  1.1951
  174DMF     C1 2566   1.345   3.207   1.566 -0.3020 -0.1267  0.6521
  174DMF     N1 2567   1.229   3.125   1.548  0.0795  0.2917  0.0997
  174DMF     C2 2568   1.245   2.985   1.535 -0.3205 -0.1814 -0.0371
  174DMF     C3 2569   1.102   3.182   1.543  0.3737 -0.6147  0.2621
  174DMF     O1 2570   1.083   3.303   1.563  0.5582  0.1970  0.2104
  174DMF     H1 2571   1.411   3.157   1.637 -1.4298 -3.3193 -0.4810
  174DMF     H2 2572   1.320   3.312   1.589  0.3887  0.1293  0.2427
  174DMF     H3 2573   1.392   3.204   1.467 -0.1391 -0.6347  0.7434
  174DMF     H4 2574   1.210   2.927   1.621  0.0042 -0.7014 -0.2503
  174DMF     H5 2575   1.351   2.957   1.526  0.3632  1.6425  1.7613
  174DMF     H6 2576   1.177   2.955   1.454 -1.0043 -2.0245  1.2017
  174DMF     H7 2577   1.025   3.105   1.524 -0.9444  0.5082  0.9149
  175DMF     C1 2578   3.185   3.245   0.527 -0.6973  0.4210  0.1567
  175DMF     N1 2579   3.049   3.313   0.559  0.3679 -0.2433  0.0944
  175DMF     C2 2580   2.969   3.249   0.666 -0.1351 -0.1667  0.3511
  175DMF     C3 2581   2.993   3.400   0.467  0.0127  0.2231 -0.1610
  175DMF     O1 2582   3.055   3.455   0.376 -0.2774  0.2831 -0.8332
  175DMF     H1 2583   3.215   3.280   0.428 -0.3798  2.5608  0.9795
  175DMF     H2 2584   3.174   3.136   0.529  1.3893  0.1150 -2.5174
  175DMF     H3 2585   3.257   3.283   0.601 -0.5128 -0.7536  0.5888
  175DMF     H4 2586   3.037   3.180   0.718 -0.2826  0.4946  1.4460
  175DMF     H5 2587   2.887   3.190   0.622 -0.6825  0.8797 -0.0470
  175DMF     H6 2588   2.944   3.310   0.754  2.1156 -0.5046  1.2581
  175DMF     H7 2589   2.886   3.422   0.485 -0.2326  0.6797 -2.0460
  176DMF     C1 2590   2.435   0.314   1.496  0.8143 -0.7875 -0.2444
  176DMF     N1 2591   2.455   0.168   1.501  0.1158  0.3693  0.1739
  176DMF     C2 2592   2.343   0.076   1.538 -0.4656  0.3397 -0.2108
  176DMF     C3 2593   2.587   0.115   1.496 -0.4387  0.0853 -0.1412
  176DMF     O1 2594   2.691   0.186   1.484 -0.2962 -0.2425 -0.3055
  176DMF     H1 2595   2.354   0.341   1.564  1.1402  2.6651 -1.1307
  176DMF     H2 2596   2.420   0.342   1.391  2.1875 -2.1429 -0.8183
  176DMF     H3 2597   2.527   0.356   1.537  0.4080 -0.9176  0.8257
  176DMF     H4 2598   2.273   0.129   1.604  0.7644  0.3506  1.1126
  176DMF     H5 2599   2.390  -0.007   1.591  3.4042  3.1783  1.0023
  176DMF     H6 2600   2.290   0.045   1.447  1.2981 -1.7643 -0.5413
  176DMF     H7 2601   2.599   0.005   1.495 -2.4021 -0.1505  0.1555
  177DMF     C1 2602   0.711   1.373   2.766  0.2012 -0.1163 -0.5555
  177DMF     N1 2603   0.669   1.308   2.890 -0.3532  0.7746  0.1071
  177DMF     C2 2604   0.567   1.379   2.976  0.3602  0.1843  0.5689
  177DMF     C3 2605   0.722   1.185   2.943  0.1766 -0.8100 -0.4015
  177DMF     O1 2606   0.801   1.113   2.883 -0.4499  1.1265  0.2741
  177DMF     H1 2607   0.721   1.480   2.791  0.2657 -0.3755  0.5701
  177DMF     H2 2608   0.645   1.366   2.679 -4.5672 -2.6156  2.9822
  177DMF     H3 2609   0.812   1.342   2.738 -0.5639 -2.0059 -1.3144
  177DMF     H4 2610   0.573   1.487   2.961 -0.0119  0.3075  1.3009
  177DMF     H5 2611   0.580   1.370   3.084  0.7717  0.1127  0.5121
  177DMF     H6 2612   0.465   1.341   2.958  0.8012  0.0907 -1.9253
  177DMF     H7 2613   0.680   1.164   3.043  0.2540 -0.0598 -0.2099
  178DMF     C1 2614   2.903   2.067   2.529 -0.7581  0.7587  0.0881
  178DMF     N1 2615   3.038   2.103   2.575  0.5891 -0.1684 -0.4620
  178DMF     C2 2616   3.058   2.235   2.619 -0.9881  0.0834  0.0595
  178DMF     C3 2617   3.146   2.022   2.562 -0.0232  0.1977  0.4415
  178DMF     O1 2618   3.146   1.913   2.502  0.1121  0.7694  0.4420
  178DMF     H1 2619   2.848   2.006   2.601  1.1471  0.2960  1.1675
  178DMF     H2 2620   2.911   2.012   2.434  1.8931  1.1406  0.0455
  178DMF     H3 2621   2.837   2.154   2.520 -0.5180  0.9469  0.1384
  178DMF     H4 2622   2.982   2.305   2.580 -1.6571 -0.7547 -0.1495
  178DMF     H5 2623   3.156   2.274   2.589 -0.6911 -0.1059  0.7766
  178DMF     H6 2624   3.054   2.239   2.729  0.0422 -1.9479  0.1945
  178DMF     H7 2625   3.240   2.069   2.595  0.4608  0.3358 -1.0981
  179DMF     C1 2626   0.413   1.335   2.297 -0.0576  0.0740 -0.3668
  179DMF     N1 2627   0.289   1.418   2.304  0.3540  0.3568  0.1070
  179DMF     C2 2628   0.156   1.359   2.343 -0.0582 -0.2285 -0.0106
  179DMF     C3 2629   0.299   1.559   2.271  0.6361  0.0261 -0.1614
  179DMF     O1 2630   0.399   1.620   2.240 -0.1043 -0.9738  0.1079
  179DMF     H1 2631   0.507   1.390   2.302  0.0981 -0.0485 -1.7909
  179DMF     H2 2632   0.403   1.272   2.208 -0.0929 -2.0376  1.1082
  179DMF     H3 2633   0.407   1.268   2.383 -1.1731  0.5651 -0.0456
  179DMF     H4 2634   0.181   1.263   2.389  3.6532 -0.1640 -1.7093
  179DMF     H5 2635   0.098   1.346   2.251 -1.0640  0.1500  0.5574
  179DMF     H6 2636   0.100   1.424   2.412  0.2833 -0.2467  0.2899
  179DMF     H7 2637   0.202   1.612   2.278  0.1102 -1.1158  1.2511
  180DMF     C1 2638   0.030   0.603   2.300  0.7325 -0.4119 -0.2558
  180DMF     N1 2639  -0.037   0.471   2.291  0.1583 -0.0088 -0.1016
  180DMF     C2 2640   0.024   0.365   2.368 -0.3141  0.2572  0.1132
  180DMF     C3 2641  -0.147   0.452   2.215 -0.4327  0.3071  0.2658
  180DMF     O1 2642  -0.232   0.538   2.192 -0.3993 -0.1277  0.3879
  180DMF     H1 2643   0.122   0.594   2.358 -0.2134  3.4847  2.0380
  180DMF     H2 2644  -0.026   0.670   2.367  2.3318 -1.4801  2.1998
  180DMF     H3 2645   0.043   0.660   2.207  2.0791 -2.3138 -1.2475
  180DMF     H4 2646  -0.024   0.268   2.347 -1.6110  0.3764  2.3930
  180DMF     H5 2647   0.018   0.369   2.477  0.6936 -2.1870  0.3008
  180DMF     H6 2648   0.126   0.351   2.331  0.2639  1.8920  1.0816
  180DMF     H7 2649  -0.162   0.345   2.191 -1.5034  1.1103 -2.8169
  181DMF     C1 2650   2.387   0.159   1.144 -0.6322 -0.0896 -0.2151
  181DMF     N1 2651   2.381   0.185   1.000 -0.7788  0.5807 -0.0688
  181DMF     C2 2652   2.493   0.126   0.923  0.2308  0.1025  0.4152
  181DMF     C3 2653   2.272   0.229   0.930  0.7518  0.5460  0.2563
  181DMF     O1 2654   2.171   0.258   0.986  0.5504 -0.0347 -0.0159
  181DMF     H1 2655   2.323   0.078   1.181 -1.6423  0.8670  0.1528
  181DMF     H2 2656   2.342   0.245   1.194 -0.6245 -0.4348  0.3891
  181DMF     H3 2657   2.488   0.137   1.179 -0.8873  0.6770  1.0199
  181DMF     H4 2658   2.581   0.185   0.953 -0.6133  2.3578 -1.3744
  181DMF     H5 2659   2.478   0.151   0.817  0.7445  0.5513  0.4426
  181DMF     H6 2660   2.500   0.017   0.926  0.8438  0.1335  0.3222
  181DMF     H7 2661   2.291   0.239   0.821 -3.1165 -0.7256 -0.6103
  182DMF     C1 2662   0.927   1.834   0.691  0.2382  0.9989 -0.2763
  182DMF     N1 2663   1.053   1.786   0.640 -0.7217  0.3528  1.0781
  182DMF     C2 2664   1.113   1.850   0.517 -0.1360  0.3850  0.7002
  182DMF     C3 2665   1.105   1.657   0.677  0.0904  0.2895 -0.1032
  182DMF     O1 2666   1.047   1.587   0.760 -0.4100  0.3795 -0.3466
  182DMF     H1 2667   0.946   1.872   0.792 -0.9851  0.3282  0.2164
  182DMF     H2 2668   0.852   1.754   0.690  0.1277  1.1061 -0.6462
  182DMF     H3 2669   0.887   1.916   0.630 -2.7638  1.3805  2.0506
  182DMF     H4 2670   1.181   1.933   0.540 -1.4638  1.0883  2.2319
  182DMF     H5 2671   1.038   1.894   0.450  0.8046 -2.7723 -2.5658
  182DMF     H6 2672   1.176   1.779   0.462 -0.9896  0.4379 -0.3702
  182DMF     H7 2673   1.198   1.637   0.620  1.0509 -0.6796  1.7592
  183DMF     C1 2674   0.083   0.129   0.031 -0.0795  0.7033 -0.2471
  183DMF     N1 2675   0.000   0.073   0.142 -0.1643  0.8305  0.4374
  183DMF     C2 2676  -0.082  -0.047   0.113 -0.7710  0.0859 -0.7542
  183DMF     C3 2677  -0.013   0.136   0.265 -0.1200 -0.0153 -0.2639
  183DMF     O1 2678   0.057   0.227   0.302 -0.4290  0.4779  0.0381
  183DMF     H1 2679   0.107   0.051  -0.043 -0.5252 -0.1512  0.4953
  183DMF     H2 2680   0.168   0.165   0.090  1.0100 -0.7455 -0.9193
  183DMF     H3 2681   0.037   0.224   0.001 -0.0485  0.7621 -0.1094
  183DMF     H4 2682  -0.141  -0.025   0.023 -0.3380 -0.4640 -1.1786
  183DMF     H5 2683  -0.139  -0.067   0.204 -0.2523 -1.3616 -0.7401
  183DMF     H6 2684  -0.018  -0.133   0.092  0.5769  0.8011  0.3106
  183DMF     H7 2685  -0.101   0.099   0.319 -0.8542  2.5573  0.3635
  184DMF     C1 2686   1.801   2.209   1.340 -0.9221 -0.0796  0.8350
  184DMF     N1 2687   1.688   2.144   1.423  0.0920  0.2563  0.1334
  184DMF     C2 2688   1.702   2.138   1.572  0.4702  0.4023  0.7369
  184DMF     C3 2689   1.587   2.071   1.353  0.0073 -0.1989 -0.0101
  184DMF     O1 2690   1.596   2.051   1.232 -0.3445  0.2061 -0.0948
  184DMF     H1 2691   1.821   2.145   1.253 -1.1472  2.1878 -0.9181
  184DMF     H2 2692   1.894   2.235   1.391  0.2339 -0.7339 -0.8664
  184DMF     H3 2693   1.762   2.300   1.292 -0.4536 -0.6865 -0.7420
  184DMF     H4 2694   1.634   2.061   1.609  2.2057 -1.1688  0.7062
  184DMF     H5 2695   1.677   2.233   1.622  0.5593  0.3432  0.8961
  184DMF     H6 2696   1.805   2.117   1.600  0.1535 -0.3204  1.3835
  184DMF     H7 2697   1.512   2.017   1.414 -0.1439 -1.4867 -1.3113
  185DMF     C1 2698   1.007   1.788   0.015  0.0866  0.5627  0.2594
  185DMF     N1 2699   1.016   1.655  -0.041 -0.2748  0.1021 -0.0441
  185DMF     C2 2700   0.941   1.636  -0.163  0.2149  0.3789 -0.1420
  185DMF     C3 2701   1.080   1.546   0.020 -0.9333 -0.5962  0.1508
  185DMF     O1 2702   1.142   1.564   0.122 -0.4852 -0.0759  0.3886
  185DMF     H1 2703   0.911   1.830  -0.017 -0.2775  0.5651  1.3356
  185DMF     H2 2704   1.090   1.841  -0.033  0.4627 -2.0091 -2.0702
  185DMF     H3 2705   1.005   1.792   0.124  1.0982 -1.8938  0.3885
  185DMF     H4 2706   0.972   1.714  -0.234 -1.5585  0.4222 -0.8905
  185DMF     H5 2707   0.833   1.649  -0.146  0.7546  0.8271  3.1868
  185DMF     H6 2708   0.965   1.540  -0.210  0.4750 -0.6333  2.0190
  185DMF     H7 2709   1.083   1.460  -0.049  0.6210 -2.4600  2.4356
  186DMF     C1 2710   3.302   1.308   2.576 -0.1181 -0.3916  0.2104
  186DMF     N1 2711   3.204   1.269   2.680  0.4001 -0.3431  0.1543
  186DMF     C2 2712   3.131   1.148   2.649 -0.6979 -0.1061 -0.3743
  186DMF     C3 2713   3.189   1.336   2.802  0.0764 -0.2850 -0.6625
  186DMF     O1 2714   3.264   1.431   2.831 -0.2197 -0.1043 -0.2259
  186DMF     H1 2715   3.261   1.396   2.525 -1.1661 -0.0276  1.6295
  186DMF     H2 2716   3.306   1.229   2.501 -0.8162  0.9541 -1.2850
  186DMF     H3 2717   3.401   1.339   2.612 -0.4201  1.7369 -0.7104
  186DMF     H4 2718   3.191   1.056   2.662 -0.5516  0.5663  4.9338
  186DMF     H5 2719   3.091   1.151   2.547  2.0850 -0.1677 -1.5358
  186DMF     H6 2720   3.048   1.135   2.720 -1.3476  0.8238 -0.9611
  186DMF     H7 2721   3.107   1.295   2.863  0.9747  0.1890  0.8818
  187DMF     C1 2722   0.711   2.117   3.353  0.3683 -0.0945 -0.3296
  187DMF     N1 2723   0.661   1.989   3.400  0.0442  0.0642  0.8094
  187DMF     C2 2724   0.613   1.891   3.296 -0.2823 -0.1264  0.9784
  187DMF     C3 2725   0.694   1.952   3.531  0.7420  0.0992 -1.0740
  187DMF     O1 2726   0.756   2.021   3.605 -0.2485 -0.3391  0.0675
  187DMF     H1 2727   0.680   2.188   3.430 -3.1875 -1.9956  0.0976
  187DMF     H2 2728   0.659   2.163   3.268  1.0500  0.2034 -0.5898
  187DMF     H3 2729   0.821   2.117   3.347  0.3750  1.1280 -0.1820
  187DMF     H4 2730   0.530   1.825   3.326 -1.0537  0.3991  0.0464
  187DMF     H5 2731   0.695   1.837   3.250  0.8919  2.8712 -0.5837
  187DMF     H6 2732   0.562   1.952   3.221  0.5834 -0.2638  0.2743
  187DMF     H7 2733   0.638   1.863   3.565  0.6058  0.4872 -0.2672
  188DMF     C1 2734   0.621   3.149   0.257  0.9275 -0.0547 -0.5126
  188DMF     N1 2735   0.658   3.015   0.249 -0.2163  0.0077 -0.0493
  188DMF     C2 2736   0.636   2.945   0.124  0.1748  0.0905  0.0763
  188DMF     C3 2737   0.691   2.938   0.358  0.4486 -0.1697 -0.2270
  188DMF     O1 2738   0.692   2.975   0.475  0.1652 -0.3603  0.0079
  188DMF     H1 2739   0.705   3.191   0.314  1.0914 -1.3280  0.2114
  188DMF     H2 2740   0.523   3.171   0.301  1.4939  0.1809  0.6332
  188DMF     H3 2741   0.635   3.193   0.157  0.7057 -0.8689 -0.9108
  188DMF     H4 2742   0.715   2.874   0.095  0.5378  0.8759 -0.8639
  188DMF     H5 2743   0.618   3.019   0.044 -1.2336  0.7244  0.9586
  188DMF     H6 2744   0.546   2.882   0.127  0.7755 -0.7728  0.1567
  188DMF     H7 2745   0.702   2.830   0.338 -2.0066 -0.3394 -0.8169
  189DMF     C1 2746   2.339   3.008   2.618  0.1559 -0.4745  0.2964
  189DMF     N1 2747   2.377   3.138   2.567 -0.3082 -0.3624  0.3092
  189DMF     C2 2748   2.265   3.232   2.548 -0.6190  0.2991 -0.4700
  189DMF     C3 2749   2.506   3.173   2.534 -0.1130  0.3260  0.1576
  189DMF     O1 2750   2.599   3.097   2.548 -0.1717 -0.1075 -0.7202
  189DMF     H1 2751   2.418   2.937   2.590  0.5721  0.2730 -0.4715
  189DMF     H2 2752   2.242   2.980   2.574 -0.2334 -0.2025  0.9865
  189DMF     H3 2753   2.313   3.016   2.724 -0.4163  3.1122 -0.0657
  189DMF     H4 2754   2.217   3.237   2.646  0.1366  2.1061 -0.1760
  189DMF     H5 2755   2.193   3.183   2.481 -0.3417 -0.5517 -0.1519
  189DMF     H6 2756   2.307   3.326   2.510 -0.4082  0.1194 -0.6862
  189DMF     H7 2757   2.512   3.277   2.498 -0.3694  2.2563  5.2249
  190DMF     C1 2758   2.608   1.530   2.385  1.3108 -0.4405  0.4808
  190DMF     N1 2759   2.613   1.660   2.324  0.5197 -0.6279  0.5279
  190DMF     C2 2760   2.719   1.754   2.368  0.1971  0.5256 -0.2358
  190DMF     C3 2761   2.497   1.707   2.253 -0.1945  0.0898  0.4934
  190DMF     O1 2762   2.400   1.642   2.224  0.8757  0.6145 -0.0802
  190DMF     H1 2763   2.573   1.538   2.489  1.0738  4.5769  0.1424
  190DMF     H2 2764   2.708   1.485   2.377  1.6870 -0.0147  2.4137
  190DMF     H3 2765   2.532   1.464   2.342  0.6583 -0.8066  2.1681
  190DMF     H4 2766   2.794   1.778   2.291  1.8934  0.4528  1.3356
  190DMF     H5 2767   2.771   1.700   2.448 -0.3809  0.1601 -0.1096
  190DMF     H6 2768   2.664   1.843   2.400  0.0239  0.5928 -0.7204
  190DMF     H7 2769   2.522   1.807   2.213 -0.1864 -0.1632 -0.1362
  191DMF     C1 2770   1.171   0.113   2.520 -0.5356  0.4012 -0.0558
  191DMF     N1 2771   1.111   0.034   2.627 -0.1310  0.1156  0.2497
  191DMF     C2 2772   1.153  -0.108   2.634 -0.0101  0.0034 -0.2127
  191DMF     C3 2773   1.048   0.087   2.737  0.1586  0.0911 -0.0773
  191DMF     O1 2774   1.044   0.207   2.756  0.4343  0.6817  0.5454
  191DMF     H1 2775   1.183   0.061   2.424 -1.7778 -2.4112  1.2900
  191DMF     H2 2776   1.262   0.159   2.563 -0.6724  1.0350 -0.4253
  191DMF     H3 2777   1.102   0.196   2.499 -0.7982 -0.1012 -1.1933
  191DMF     H4 2778   1.232  -0.132   2.561  1.2544  0.2181  1.0641
  191DMF     H5 2779   1.071  -0.169   2.595 -0.0459  1.4071 -2.4018
  191DMF     H6 2780   1.186  -0.143   2.733  1.5213 -0.0553 -0.7337
  191DMF     H7 2781   1.010   0.014   2.810 -1.1856 -0.3063 -1.1465
  192DMF     C1 2782   0.990   2.281   2.218  0.1358 -0.8944 -0.2674
  192DMF     N1 2783   0.952   2.146   2.261 -0.0887 -0.5208 -0.3401
  192DMF     C2 2784   1.050   2.038   2.269  0.0740  0.1224  0.1181
  192DMF     C3 2785   0.819   2.123   2.307 -0.2299  0.3609 -1.4066
  192DMF     O1 2786   0.735   2.214   2.316 -0.6630 -0.2995 -0.5098
  192DMF     H1 2787   1.002   2.344   2.306  0.1025 -0.3346 -0.6645
  192DMF     H2 2788   0.909   2.325   2.159  0.3324  1.2395  1.0183
  192DMF     H3 2789   1.086   2.276   2.165  0.5198 -0.7254  0.4018
  192DMF     H4 2790   1.017   1.962   2.341  0.7775 -0.7872 -0.4964
  192DMF     H5 2791   1.149   2.078   2.293  1.2029 -0.8744 -2.7208
  192DMF     H6 2792   1.075   1.988   2.175  0.4918 -0.3503  0.4761
  192DMF     H7 2793   0.802   2.018   2.338  2.3108 -0.5195 -2.7701
  193DMF     C1 2794   0.573   2.634   0.937 -0.0387  0.1140 -0.7789
  193DMF     N1 2795   0.590   2.698   0.799 -0.0319  0.3274  0.1279
  193DMF     C2 2796   0.565   2.840   0.791 -0.2034  0.5401  0.2209
  193DMF     C3 2797   0.599   2.621   0.686 -0.2897  0.2036  0.4344
  193DMF     O1 2798   0.620   2.499   0.689 -0.0759  0.4004 -0.1906
  193DMF     H1 2799   0.545   2.528   0.942 -0.6214  0.3648  2.7817
  193DMF     H2 2800   0.508   2.689   1.006 -0.7331 -1.8550  0.1540
  193DMF     H3 2801   0.669   2.644   0.990 -0.2134  0.0135 -0.4393
  193DMF     H4 2802   0.607   2.887   0.880 -1.3276  1.0465  0.4986
  193DMF     H5 2803   0.460   2.872   0.788  0.5737  3.0937 -1.1255
  193DMF     H6 2804   0.623   2.885   0.709 -0.0988  0.7792  0.4257
  193DMF     H7 2805   0.600   2.682   0.594 -1.6184  1.1196  1.0071
  194DMF     C1 2806   0.511   0.224   0.864 -0.2749 -0.1570  0.3128
  194DMF     N1 2807   0.482   0.351   0.801  0.0566  0.6927  0.2460
  194DMF     C2 2808   0.348   0.382   0.746 -0.2241  0.0028  0.2540
  194DMF     C3 2809   0.592   0.449   0.773  0.0504 -0.4529  0.3194
  194DMF     O1 2810   0.712   0.434   0.795 -0.2771 -0.2106  0.7571
  194DMF     H1 2811   0.481   0.139   0.802 -1.7714  2.0181 -2.0376
  194DMF     H2 2812   0.451   0.221   0.956 -1.2703  1.3878 -0.2695
  194DMF     H3 2813   0.618   0.207   0.881  0.2602  1.6052 -1.1281
  194DMF     H4 2814   0.277   0.303   0.719 -3.1356  2.7389 -0.3077
  194DMF     H5 2815   0.368   0.436   0.653 -0.9153 -0.0405  0.0777
  194DMF     H6 2816   0.300   0.452   0.815  0.5061 -0.2591  1.0432
  194DMF     H7 2817   0.551   0.541   0.728  0.4681 -0.6741 -0.5192
  195DMF     C1 2818   2.750   2.897   0.453 -0.1038 -0.6063  0.6666
  195DMF     N1 2819   2.663   2.782   0.420 -0.3985 -0.7464 -0.0511
  195DMF     C2 2820   2.725   2.654   0.375  0.3303 -0.5709  0.2989
  195DMF     C3 2821   2.525   2.804   0.415 -0.0559  0.4939 -0.7077
  195DMF     O1 2822   2.471   2.898   0.463  0.0066  0.5142  0.0482
  195DMF     H1 2823   2.723   2.973   0.379 -0.4344 -1.1139  0.2612
  195DMF     H2 2824   2.855   2.865   0.454 -0.2992 -1.2575  0.9523
  195DMF     H3 2825   2.723   2.929   0.555  0.9363 -2.2120  1.4740
  195DMF     H4 2826   2.819   2.665   0.320  0.0152  0.3477 -0.0727
  195DMF     H5 2827   2.649   2.588   0.333 -0.0166  0.0822 -0.1010
  195DMF     H6 2828   2.754   2.605   0.469  4.1684 -1.0583 -1.0439
  195DMF     H7 2829   2.479   2.715   0.369  2.8294 -0.2597 -2.3120
  196DMF     C1 2830   2.360   1.376   1.395 -0.1197 -0.6823 -0.1994
  196DMF     N1 2831   2.474   1.389   1.489  0.1604 -0.6406 -0.3622
  196DMF     C2 2832   2.512   1.265   1.565  0.3404  0.4535 -0.0096
  196DMF     C3 2833   2.505   1.517   1.540  0.2067 -0.6450 -0.2533
  196DMF     O1 2834   2.447   1.618   1.504  0.2345 -0.5029  0.2755
  196DMF     H1 2835   2.385   1.409   1.293  0.0328  0.1612  0.1088
  196DMF     H2 2836   2.276   1.436   1.430  0.1814 -0.8541  0.8132
  196DMF     H3 2837   2.318   1.276   1.378 -0.7493 -0.3464 -0.6640
  196DMF     H4 2838   2.536   1.183   1.497  3.5642  2.9102 -2.0503
  196DMF     H5 2839   2.430   1.227   1.627 -0.6726 -0.8599 -2.1330
  196DMF     H6 2840   2.594   1.291   1.635  1.1753  0.4861 -0.9898
  196DMF     H7 2841   2.580   1.517   1.621 -1.3783  0.9175  1.2706
  197DMF     C1 2842   2.670   0.076   0.289 -0.7628  0.3135 -0.2724
  197DMF     N1 2843   2.589  -0.045   0.305  0.0113  0.4772  0.1967
  197DMF     C2 2844   2.453  -0.034   0.252 -0.1435  0.2736 -0.5834
  197DMF     C3 2845   2.637  -0.163   0.364  0.5159  0.1033  0.3094
  197DMF     O1 2846   2.752  -0.178   0.411  0.1282 -0.3420  0.0063
  197DMF     H1 2847   2.734   0.060   0.201 -0.6983  0.0873 -0.1853
  197DMF     H2 2848   2.721   0.102   0.383  0.0404 -0.0135 -0.6143
  197DMF     H3 2849   2.606   0.160   0.261 -1.6490 -1.6268 -4.4170
  197DMF     H4 2850   2.394  -0.117   0.293  0.5788  0.0764  0.0671
  197DMF     H5 2851   2.446  -0.022   0.143 -0.4606 -0.8822 -0.6954
  197DMF     H6 2852   2.403   0.058   0.285  1.0272  0.4767  0.6604
  197DMF     H7 2853   2.558  -0.239   0.358  0.6631 -0.0298  0.0516
  198DMF     C1 2854   0.480   2.641   3.731  0.2869 -0.5261  0.6555
  198DMF     N1 2855   0.480   2.505   3.787 -0.6571  0.1480 -0.5421
  198DMF     C2 2856   0.377   2.469   3.884  1.0934  0.6383 -0.0548
  198DMF     C3 2857   0.570   2.408   3.740  0.1662 -0.3916 -0.1117
  198DMF     O1 2858   0.647   2.430   3.646  0.0444 -0.1480  0.2083
  198DMF     H1 2859   0.425   2.643   3.636  1.6975  1.8046 -0.1476
  198DMF     H2 2860   0.585   2.668   3.718 -0.2017  1.5221  0.7083
  198DMF     H3 2861   0.428   2.709   3.800 -0.4355  0.3331 -0.7284
  198DMF     H4 2862   0.333   2.553   3.939  0.3070  0.7107 -0.7793
  198DMF     H5 2863   0.422   2.388   3.942 -2.1758 -0.0464  1.6310
  198DMF     H6 2864   0.296   2.410   3.840  1.2390 -0.0530  0.6049
  198DMF     H7 2865   0.542   2.308   3.779  0.8013 -0.0214  1.3390
  199DMF     C1 2866   2.127   3.278   1.199  0.2480 -0.1708 -0.5965
  199DMF     N1 2867   2.045   3.155   1.199 -0.3270 -0.5763 -0.3630
  199DMF     C2 2868   2.088   3.035   1.256 -0.1161 -0.0985  0.0477
  199DMF     C3 2869   1.930   3.147   1.118 -1.0333  0.2275  0.2779
  199DMF     O1 2870   1.880   3.248   1.069 -0.2771  0.2653  0.7936
  199DMF     H1 2871   2.230   3.247   1.222  0.0445 -0.9488 -0.7209
  199DMF     H2 2872   2.085   3.355   1.265  0.1769 -0.8319  0.1374
  199DMF     H3 2873   2.144   3.313   1.097  1.2808 -2.7480 -1.3621
  199DMF     H4 2874   2.185   3.056   1.304 -0.5943  1.8403  0.2286
  199DMF     H5 2875   2.094   2.947   1.191 -0.5745 -0.1492  0.0721
  199DMF     H6 2876   2.023   3.007   1.340 -1.0695 -2.2737 -1.3573
  199DMF     H7 2877   1.886   3.046   1.117  1.3858 -0.8655 -0.7254
  200DMF     C1 2878   2.088   2.463   2.643  0.2914 -0.7626 -0.0896
  200DMF     N1 2879   2.152   2.562   2.555  0.0443  0.3447  0.2899
  200DMF     C2 2880   2.123   2.710   2.587  0.3067  0.9111 -0.2898
  200DMF     C3 2881   2.216   2.532   2.429 -0.2854 -0.2015 -0.4164
  200DMF     O1 2882   2.215   2.420   2.386 -0.4723 -0.5232  0.1081
  200DMF     H1 2883   2.125   2.362   2.625 -0.0325 -0.7195 -0.9955
  200DMF     H2 2884   1.978   2.460   2.636  0.2652  0.1682 -0.1206
  200DMF     H3 2885   2.102   2.504   2.744  0.8305 -0.3799 -0.3205
  200DMF     H4 2886   2.148   2.736   2.690  1.2881 -0.1555 -0.2402
  200DMF     H5 2887   2.017   2.726   2.564  0.6932  1.7016 -1.5728
  200DMF     H6 2888   2.179   2.769   2.514  1.6192 -1.2737 -1.1095
  200DMF     H7 2889   2.264   2.615   2.374  2.5416 -1.0315  0.7417
  201DMF     C1 2890   1.929   0.544   3.429 -0.5381 -0.1281  0.1893
  201DMF     N1 2891   1.888   0.406   3.453 -0.2486 -1.1664  0.4366
  201DMF     C2 2892   1.994   0.312   3.491 -0.9040 -0.2985 -0.0397
  201DMF     C3 2893   1.757   0.375   3.474 -0.4223  0.6556  0.0145
  201DMF     O1 2894   1.663   0.453   3.449  0.5055  0.1222  0.4310
  201DMF     H1 2895   2.002   0.573   3.507 -1.0322  0.6643  0.3633
  201DMF     H2 2896   1.845   0.609   3.455  1.1369  0.7028  4.0415
  201DMF     H3 2897   1.962   0.546   3.325 -0.9555 -2.9321 -0.0241
  201DMF     H4 2898   1.957   0.211   3.467  1.0627 -0.5165 -2.3171
  201DMF     H5 2899   2.022   0.323   3.596 -0.0777 -2.3711 -0.0205
  201DMF     H6 2900   2.077   0.325   3.421 -1.4438  2.6115 -0.1865
  201DMF     H7 2901   1.739   0.272   3.507 -1.2215  0.2843 -1.5456
  202DMF     C1 2902   1.891   0.372   0.657  0.0971  0.7541  0.5546
  202DMF     N1 2903   1.938   0.438   0.778 -0.2176  0.0591 -0.2307
  202DMF     C2 2904   1.850   0.415   0.896  0.2878 -0.5655 -0.5005
  202DMF     C3 2905   2.069   0.481   0.799  0.6002  0.2757 -0.2942
  202DMF     O1 2906   2.159   0.485   0.715  0.1325 -0.8018 -0.4433
  202DMF     H1 2907   1.782   0.367   0.654  0.1799 -0.2138 -1.0656
  202DMF     H2 2908   1.929   0.270   0.643 -0.8590  0.4231  0.3245
  202DMF     H3 2909   1.932   0.428   0.571  0.8383 -0.3120  0.2081
  202DMF     H4 2910   1.744   0.440   0.882  0.3152 -0.6596 -0.8985
  202DMF     H5 2911   1.893   0.482   0.971 -0.3744 -2.7342  1.8613
  202DMF     H6 2912   1.856   0.312   0.931 -1.6588 -1.2476 -2.0620
  202DMF     H7 2913   2.096   0.513   0.901  2.3072  0.9795 -0.9409
  203DMF     C1 2914   2.624   0.597   2.280  0.4950  0.4237  0.6860
  203DMF     N1 2915   2.743   0.506   2.269 -0.0620  0.3039 -0.1736
  203DMF     C2 2916   2.727   0.360   2.254  0.1202 -0.6773 -0.0819
  203DMF     C3 2917   2.871   0.564   2.297  0.4015  0.3428  0.0516
  203DMF     O1 2918   2.875   0.680   2.339 -1.0299 -0.4752  0.1378
  203DMF     H1 2919   2.544   0.562   2.214  0.3306 -3.1134  2.6473
  203DMF     H2 2920   2.653   0.701   2.261 -2.4110  1.1426 -0.0363
  203DMF     H3 2921   2.583   0.583   2.381 -0.4455  2.1112  0.5421
  203DMF     H4 2922   2.806   0.306   2.200 -0.5781  0.9802 -2.8291
  203DMF     H5 2923   2.638   0.332   2.198 -0.3718 -2.1242  1.3667
  203DMF     H6 2924   2.721   0.314   2.354 -2.7540 -2.2404 -0.9272
  203DMF     H7 2925   2.955   0.494   2.283 -2.1493 -2.8444  0.0987
  204DMF     C1 2926   0.065   3.062   1.573  0.1639  0.3669  0.5304
  204DMF     N1 2927   0.183   3.151   1.556 -0.3894  0.1855 -0.7183
  204DMF     C2 2928   0.152   3.294   1.552  0.0791 -0.8711 -0.5279
  204DMF     C3 2929   0.317   3.102   1.584  0.3785 -0.3463  0.0768
  204DMF     O1 2930   0.339   2.981   1.592 -0.3698 -0.2405  0.2452
  204DMF     H1 2931   0.091   2.971   1.628  0.9589  1.1780  1.5289
  204DMF     H2 2932   0.024   3.023   1.479  0.0718  0.4101  0.5523
  204DMF     H3 2933  -0.025   3.112   1.611 -1.0240 -0.8029 -0.6667
  204DMF     H4 2934   0.158   3.332   1.449 -0.6470  2.2317  0.5387
  204DMF     H5 2935   0.226   3.339   1.619 -0.7534  2.4497 -1.7427
  204DMF     H6 2936   0.050   3.305   1.590  1.0009  0.6889  1.5675
  204DMF     H7 2937   0.396   3.179   1.580  0.4152 -0.3883  0.0060
  205DMF     C1 2938   0.795   3.391   2.288 -0.3300  0.1756 -0.5014
  205DMF     N1 2939   0.722   3.261   2.290  0.0906  0.3260 -0.0850
  205DMF     C2 2940   0.803   3.139   2.286 -0.2099 -0.4674 -0.1793
  205DMF     C3 2941   0.578   3.262   2.281  0.4359 -0.0930 -0.1178
  205DMF     O1 2942   0.523   3.373   2.275 -0.2219 -0.2189  0.3673
  205DMF     H1 2943   0.901   3.371   2.307  0.0227  0.5547 -1.9621
  205DMF     H2 2944   0.748   3.457   2.361 -2.1145  0.0133 -1.4672
  205DMF     H3 2945   0.796   3.429   2.185  0.2586 -1.8293 -1.2674
  205DMF     H4 2946   0.790   3.105   2.182  1.1546 -0.1073 -0.4662
  205DMF     H5 2947   0.758   3.071   2.360  0.7319 -3.1558 -2.0028
  205DMF     H6 2948   0.906   3.169   2.306 -0.3842  0.6312 -0.9064
  205DMF     H7 2949   0.532   3.162   2.282  1.1037 -0.4244 -1.0853
  206DMF     C1 2950   3.342   0.995   2.226  0.2191 -0.2397  0.3445
  206DMF     N1 2951   3.297   0.940   2.362 -0.0559 -0.4486 -0.1079
  206DMF     C2 2952   3.170   0.861   2.373 -0.1732  0.4405 -0.1683
  206DMF     C3 2953   3.378   0.947   2.475 -0.4145  0.2408  0.0858
  206DMF     O1 2954   3.491   0.999   2.469  0.1397 -0.2602  0.2601
  206DMF     H1 2955   3.260   0.990   2.153  3.1487 -0.2380 -3.0829
  206DMF     H2 2956   3.417   0.926   2.186  0.3949 -0.9165  1.7981
  206DMF     H3 2957   3.384   1.094   2.243 -1.3240  0.8645 -2.1113
  206DMF     H4 2958   3.108   0.873   2.283  1.0624 -1.4257 -1.3032
  206DMF     H5 2959   3.097   0.890   2.449 -0.4154  1.6231 -0.8424
  206DMF     H6 2960   3.197   0.756   2.390 -0.9820  0.2310 -0.1779
  206DMF     H7 2961   3.330   0.909   2.567  1.6220  1.3279  1.6311
  207DMF     C1 2962   1.168   1.749   3.342  0.2888 -0.4917  0.4736
  207DMF     N1 2963   1.295   1.698   3.410 -0.3615 -0.4549  0.1028
  207DMF     C2 2964   1.420   1.778   3.391  0.9977 -0.6259  0.3113
  207DMF     C3 2965   1.303   1.573   3.466 -0.4068  1.2440  0.4826
  207DMF     O1 2966   1.209   1.504   3.501 -0.2977 -0.3070  0.3206
  207DMF     H1 2967   1.163   1.857   3.325 -1.5093 -0.5917  0.3234
  207DMF     H2 2968   1.076   1.712   3.389 -0.3241 -0.6740 -0.8652
  207DMF     H3 2969   1.165   1.700   3.244  1.7232  0.4840 -0.0699
  207DMF     H4 2970   1.460   1.768   3.289 -2.9308 -3.1718 -1.0914
  207DMF     H5 2971   1.486   1.753   3.474 -0.9152 -3.6111  1.0308
  207DMF     H6 2972   1.399   1.886   3.397  0.9886 -0.5200 -1.2676
  207DMF     H7 2973   1.403   1.530   3.482 -1.4845 -0.5085  2.9103
  208DMF     C1 2974   1.159   1.167   1.154  0.4066  0.7352 -0.5445
  208DMF     N1 2975   1.171   1.068   1.036  1.1211  0.0119 -0.1654
  208DMF     C2 2976   1.306   1.041   0.991  0.1407  0.4933  0.0851
  208DMF     C3 2977   1.060   0.993   0.987 -0.3578  0.2278  0.4312
  208DMF     O1 2978   0.939   1.007   1.015  0.5492  0.1286  0.0205
  208DMF     H1 2979   1.240   1.170   1.228 -0.6077 -0.1344  0.6304
  208DMF     H2 2980   1.070   1.144   1.213 -0.9044  2.5447 -1.7580
  208DMF     H3 2981   1.142   1.268   1.113  3.6324  2.3470  1.8497
  208DMF     H4 2982   1.334   1.116   0.916  0.1477 -1.2650 -1.7151
  208DMF     H5 2983   1.315   0.936   0.958  0.4907  0.6680 -0.3811
  208DMF     H6 2984   1.373   1.054   1.077 -0.4311 -0.9998  0.7765
  208DMF     H7 2985   1.096   0.923   0.910  0.1027  1.0493 -0.1127
  209DMF     C1 2986   3.225   2.613   0.237  0.4247 -0.4286  0.9607
  209DMF     N1 2987   3.208   2.478   0.171  0.7570  0.3966  0.1672
  209DMF     C2 2988   3.330   2.406   0.149 -0.3235 -0.1709  0.1159
  209DMF     C3 2989   3.093   2.448   0.097 -0.8576 -0.3082 -0.4210
  209DMF     O1 2990   2.998   2.525   0.103  0.3560 -0.2465  0.9373
  209DMF     H1 2991   3.126   2.651   0.264 -0.0358 -2.2313  1.8972
  209DMF     H2 2992   3.269   2.685   0.167 -1.7165 -1.2527 -1.2941
  209DMF     H3 2993   3.284   2.605   0.329 -1.2750  0.9356  2.1713
  209DMF     H4 2994   3.415   2.473   0.165 -0.0028 -0.2466 -1.1855
  209DMF     H5 2995   3.332   2.370   0.045 -0.8367  0.9169 -0.2871
  209DMF     H6 2996   3.349   2.322   0.216  1.8908 -0.6076 -1.0170
  209DMF     H7 2997   3.096   2.359   0.032  1.5529 -2.4092  2.4034
  210DMF     C1 2998   2.835   1.518   3.653 -0.1067  0.1063  0.6370
  210DMF     N1 2999   2.983   1.513   3.650 -0.4938 -0.0958 -0.2649
  210DMF     C2 3000   3.054   1.431   3.549 -1.1883  0.4616 -0.0784
  210DMF     C3 3001   3.066   1.548   3.760 -0.1506  0.1119 -0.4739
  210DMF     O1 3002   3.028   1.593   3.864 -0.1709 -0.5215 -0.1519
  210DMF     H1 3003   2.793   1.545   3.555 -0.0843 -2.0799  0.0061
  210DMF     H2 3004   2.806   1.601   3.719 -0.7660 -0.9067  1.6388
  210DMF     H3 3005   2.800   1.421   3.688 -0.3333 -0.6075 -1.4933
  210DMF     H4 3006   3.099   1.338   3.585  0.8072  0.6612 -1.9509
  210DMF     H5 3007   3.124   1.496   3.494 -0.5758 -1.0034 -1.0509
  210DMF     H6 3008   2.979   1.387   3.482  0.0900  0.1224 -1.3076
  210DMF     H7 3009   3.173   1.533   3.736 -0.3608 -0.5567 -1.0177
  211DMF     C1 3010   2.054   0.791   0.296 -0.2547  0.1410  0.2138
  211DMF     N1 3011   1.911   0.816   0.301 -0.6003  0.1330 -0.7160
  211DMF     C2 3012   1.862   0.948   0.264 -0.2177  0.6197  0.2527
  211DMF     C3 3013   1.812   0.713   0.305 -0.3909  0.1094  0.4562
  211DMF     O1 3014   1.837   0.598   0.332  0.0007 -0.0174  0.2649
  211DMF     H1 3015   2.097   0.792   0.397  0.0094  0.2504  0.1009
  211DMF     H2 3016   2.113   0.862   0.237  0.8412 -1.1546 -0.3040
  211DMF     H3 3017   2.077   0.691   0.256  1.7446  0.5724  0.2364
  211DMF     H4 3018   1.903   0.979   0.167  0.5811 -0.0948  0.3561
  211DMF     H5 3019   1.887   1.026   0.338 -1.6342  1.9337 -0.6363
  211DMF     H6 3020   1.753   0.948   0.260 -0.1503 -0.7342 -2.8695
  211DMF     H7 3021   1.713   0.759   0.296 -0.0498  0.4323 -1.9965
  212DMF     C1 3022   1.466   3.351   0.489 -0.0273  0.0292  0.6640
  212DMF     N1 3023   1.594   3.345   0.429  0.5718  0.1479 -0.1234
  212DMF     C2 3024   1.664   3.471   0.382  0.1706 -0.6206 -0.5584
  212DMF     C3 3025   1.644   3.215   0.394  0.3419  0.0284 -0.4291
  212DMF     O1 3026   1.587   3.114   0.431  0.3384 -0.0890 -0.1237
  212DMF     H1 3027   1.475   3.293   0.582  0.9126 -1.9354 -0.6112
  212DMF     H2 3028   1.384   3.327   0.421  0.9719 -1.2887 -0.1072
  212DMF     H3 3029   1.450   3.455   0.522 -3.1553 -0.0958 -0.3124
  212DMF     H4 3030   1.587   3.544   0.356 -1.2191 -2.5578 -2.0052
  212DMF     H5 3031   1.715   3.438   0.291  0.8309  0.3240 -0.5418
  212DMF     H6 3032   1.727   3.515   0.461 -0.0282 -0.1264 -0.6708
  212DMF     H7 3033   1.747   3.215   0.355  0.8504 -2.8847  0.8307
  213DMF     C1 3034   1.542   1.856   2.633  0.3016  0.2354 -0.7239
  213DMF     N1 3035   1.682   1.869   2.597 -0.1249 -0.4710  0.7052
  213DMF     C2 3036   1.766   1.751   2.605 -0.5975  0.4082 -0.3273
  213DMF     C3 3037   1.733   1.992   2.567  0.8696 -0.2925  0.2094
  213DMF     O1 3038   1.669   2.102   2.582 -0.0220  0.5210  0.0653
  213DMF     H1 3039   1.489   1.951   2.642 -0.0955  0.1037 -1.6504
  213DMF     H2 3040   1.544   1.800   2.728 -1.2324  5.3134  2.5040
  213DMF     H3 3041   1.498   1.796   2.553 -0.1561  0.9959 -1.0460
  213DMF     H4 3042   1.803   1.742   2.708 -0.7400 -0.9972 -0.3843
  213DMF     H5 3043   1.846   1.760   2.531  1.8502 -2.8918  1.7854
  213DMF     H6 3044   1.713   1.658   2.580 -0.4739  0.5776 -1.2679
  213DMF     H7 3045   1.841   1.984   2.547  0.2076 -1.8390 -3.0701
  214DMF     C1 3046   3.376   2.376   0.573  0.5978  0.3335 -0.1708
  214DMF     N1 3047   3.492   2.461   0.606  0.4560 -0.0072 -0.5167
  214DMF     C2 3048   3.524   2.561   0.502 -0.1183 -0.3518  0.2674
  214DMF     C3 3049   3.572   2.434   0.720  0.0206  0.1180  0.2734
  214DMF     O1 3050   3.559   2.339   0.794 -0.4391  0.2954 -0.0690
  214DMF     H1 3051   3.336   2.324   0.661 -1.7944  1.5839 -0.4683
  214DMF     H2 3052   3.397   2.308   0.489  0.1144 -0.3420  0.2568
  214DMF     H3 3053   3.301   2.448   0.537 -0.0708  0.6999  1.9087
  214DMF     H4 3054   3.495   2.524   0.403 -0.9878 -0.8210  0.6931
  214DMF     H5 3055   3.622   2.611   0.501  1.1114 -2.7106  0.2770
  214DMF     H6 3056   3.453   2.644   0.516  2.0702  1.5439  0.4300
  214DMF     H7 3057   3.661   2.499   0.720  1.8377 -2.2300  2.4124
  215DMF     C1 3058   1.520   0.816   3.096 -0.4554  0.0226 -0.3831
  215DMF     N1 3059   1.658   0.816   3.145 -0.4059 -0.4240  0.0663
  215DMF     C2 3060   1.711   0.698   3.210  0.1887  0.2010 -0.2261
  215DMF     C3 3061   1.730   0.935   3.138 -0.0683 -0.1532 -0.7816
  215DMF     O1 3062   1.685   1.028   3.070 -0.5596  0.0579  0.0515
  215DMF     H1 3063   1.518   0.878   3.005 -0.9573 -1.1845 -1.1949
  215DMF     H2 3064   1.442   0.858   3.162 -2.1685 -1.4558 -1.4175
  215DMF     H3 3065   1.497   0.712   3.070  1.6218  0.0042 -2.2504
  215DMF     H4 3066   1.729   0.619   3.136  0.7224  1.7858 -1.8137
  215DMF     H5 3067   1.642   0.676   3.293  1.2908 -3.0914 -0.1104
  215DMF     H6 3068   1.806   0.733   3.254 -0.5607  0.8967  0.8535
  215DMF     H7 3069   1.831   0.928   3.183 -0.0403  0.3223 -0.7651
  216DMF     C1 3070   0.356   2.227   0.463 -0.3794 -0.0175 -0.4604
  216DMF     N1 3071   0.327   2.176   0.600 -0.1418 -0.2162 -0.3962
  216DMF     C2 3072   0.426   2.184   0.701 -1.1358  0.4842  0.1271
  216DMF     C3 3073   0.214   2.098   0.616 -0.1796  0.6778  0.3222
  216DMF     O1 3074   0.134   2.071   0.523  0.1318 -0.0367  0.2848
  216DMF     H1 3075   0.297   2.315   0.434  2.9424  2.1936 -0.7940
  216DMF     H2 3076   0.344   2.143   0.394 -0.5115 -2.0249  1.9428
  216DMF     H3 3077   0.458   2.266   0.455 -0.7919  1.1408 -0.2787
  216DMF     H4 3078   0.444   2.080   0.729 -1.6148  0.9449  2.2861
  216DMF     H5 3079   0.393   2.241   0.789  2.0100  1.0303  0.9983
  216DMF     H6 3080   0.523   2.220   0.665 -1.5066 -0.8518 -2.2578
  216DMF     H7 3081   0.200   2.058   0.718  1.7199  0.2244  0.4253
  217DMF     C1 3082   0.000   1.148   0.263 -0.3405 -0.5319  0.5194
  217DMF     N1 3083   0.033   1.158   0.126 -0.1057 -0.3080 -0.0366
  217DMF     C2 3084   0.116   1.060   0.056  0.2747 -1.0388  0.4670
  217DMF     C3 3085  -0.041   1.252   0.047 -0.1466 -0.2697 -0.2239
  217DMF     O1 3086  -0.119   1.327   0.098  0.8018 -0.0790 -0.2346
  217DMF     H1 3087  -0.005   1.245   0.314 -1.6163 -0.2357 -0.1682
  217DMF     H2 3088   0.078   1.100   0.324 -0.4669  0.3259  1.3711
  217DMF     H3 3089  -0.095   1.093   0.269 -0.6820 -0.0523 -0.3926
  217DMF     H4 3090   0.080   0.964   0.094  1.6125 -1.8562 -0.3286
  217DMF     H5 3091   0.221   1.075   0.081  0.7145 -1.5630 -1.0287
  217DMF     H6 3092   0.099   1.063  -0.052  1.3560  3.8448  0.3013
  217DMF     H7 3093  -0.018   1.252  -0.061  0.0656  2.5402 -0.2071
  218DMF     C1 3094   1.433   3.296   2.267 -0.1277 -0.0440  0.3381
  218DMF     N1 3095   1.315   3.212   2.237  0.6540  0.0209 -0.8963
  218DMF     C2 3096   1.179   3.281   2.234  0.5903 -0.0945 -0.0147
  218DMF     C3 3097   1.332   3.071   2.230  0.3412 -0.2238 -0.1374
  218DMF     O1 3098   1.438   3.007   2.252  0.1704 -0.2902 -0.0014
  218DMF     H1 3099   1.440   3.323   2.373 -0.3077  1.2831  0.0248
  218DMF     H2 3100   1.426   3.382   2.199 -1.6755 -1.5405 -1.4601
  218DMF     H3 3101   1.522   3.237   2.241 -2.1937 -2.9021 -0.4954
  218DMF     H4 3102   1.154   3.285   2.341 -0.8608 -3.1711 -0.2039
  218DMF     H5 3103   1.106   3.220   2.179  1.9750 -0.9055 -0.9648
  218DMF     H6 3104   1.200   3.381   2.193  2.5299 -0.8120 -0.8277
  218DMF     H7 3105   1.238   3.019   2.203  0.8067 -1.9298  1.4391
  219DMF     C1 3106   1.596   2.180   3.098  0.0804  0.0121  0.4447
  219DMF     N1 3107   1.617   2.041   3.058 -0.4190 -0.6627  0.8858
  219DMF     C2 3108   1.655   2.007   2.910  0.3484 -0.0795  0.4404
  219DMF     C3 3109   1.636   1.939   3.144  0.0350 -0.3076 -0.0953
  219DMF     O1 3110   1.632   1.959   3.262 -0.3608 -0.6500  0.1815
  219DMF     H1 3111   1.519   2.171   3.176  1.4333 -0.7489  1.7333
  219DMF     H2 3112   1.550   2.237   3.017  0.8894  0.4838  0.3164
  219DMF     H3 3113   1.689   2.233   3.122  0.0725  1.1814 -1.9870
  219DMF     H4 3114   1.752   2.043   2.874  0.2145  0.3455  0.5049
  219DMF     H5 3115   1.576   2.048   2.846  0.7477 -0.6503 -0.4268
  219DMF     H6 3116   1.658   1.898   2.895 -2.1391 -0.0879 -0.2623
  219DMF     H7 3117   1.664   1.841   3.101  2.8548 -0.0099  0.9844
  220DMF     C1 3118   0.577   0.874   2.299  0.8414  0.4433 -0.0702
  220DMF     N1 3119   0.436   0.873   2.350 -0.2426  0.1042  0.3247
  220DMF     C2 3120   0.328   0.830   2.257  0.7858 -0.1857 -0.4256
  220DMF     C3 3121   0.419   0.884   2.488  0.2619 -0.3056 -0.0535
  220DMF     O1 3122   0.511   0.906   2.562  0.9293  0.5369  0.0087
  220DMF     H1 3123   0.581   0.968   2.242  0.7302  0.5613  0.1147
  220DMF     H2 3124   0.598   0.783   2.242  0.0510 -0.9682  1.8567
  220DMF     H3 3125   0.657   0.884   2.374  1.8562 -1.0432 -0.9380
  220DMF     H4 3126   0.240   0.884   2.293  1.1123 -0.0796  0.2257
  220DMF     H5 3127   0.305   0.722   2.259  0.7036 -0.1519  0.8319
  220DMF     H6 3128   0.355   0.858   2.155  1.1921  2.2294  0.3357
  220DMF     H7 3129   0.315   0.867   2.521 -0.5949  0.7169 -2.1597
  221DMF     C1 3130   0.582   3.273   0.590  0.4318  0.0828  0.1111
  221DMF     N1 3131   0.631   3.328   0.717 -0.2133  0.5328  0.1092
  221DMF     C2 3132   0.724   3.445   0.713  0.0979 -0.6074  0.2811
  221DMF     C3 3133   0.593   3.272   0.845  0.7951 -0.4268  0.1863
  221DMF     O1 3134   0.512   3.182   0.858  0.5057  0.2338 -0.5060
  221DMF     H1 3135   0.479   3.235   0.595  0.6990 -0.7023 -0.3591
  221DMF     H2 3136   0.663   3.207   0.558  0.5624  0.1538  0.2914
  221DMF     H3 3137   0.584   3.348   0.510  0.1983 -1.0484 -0.9651
  221DMF     H4 3138   0.807   3.440   0.641  0.8029  1.6114  0.8912
  221DMF     H5 3139   0.755   3.465   0.816 -1.8771  2.8776  0.2526
  221DMF     H6 3140   0.678   3.541   0.687  0.6769 -0.2280  0.6326
  221DMF     H7 3141   0.650   3.314   0.929 -0.5092  1.0928  0.3294
  222DMF     C1 3142   2.631   3.096   0.939 -0.2874  0.5090 -0.2260
  222DMF     N1 3143   2.653   3.184   1.055 -0.5089  0.0004 -0.1064
  222DMF     C2 3144   2.752   3.292   1.051  0.1407  0.6508  0.0501
  222DMF     C3 3145   2.579   3.168   1.170  0.0795 -0.6301  0.1186
  222DMF     O1 3146   2.482   3.094   1.181  0.0310  0.0054 -0.6137
  222DMF     H1 3147   2.665   2.993   0.958 -0.2068  0.8992  1.7923
  222DMF     H2 3148   2.687   3.135   0.853 -0.7541 -0.2250 -0.8760
  222DMF     H3 3149   2.524   3.084   0.919 -0.4938 -1.2469  1.7866
  222DMF     H4 3150   2.747   3.349   0.957 -0.4795  1.4918  0.5832
  222DMF     H5 3151   2.853   3.254   1.070  1.0363  2.7106 -0.3912
  222DMF     H6 3152   2.726   3.365   1.129 -0.6013 -0.5554  0.9440
  222DMF     H7 3153   2.620   3.229   1.253  1.5232 -0.7557 -0.4880
  223DMF     C1 3154   1.286   2.495   2.285  0.2277  0.3157  0.3139
  223DMF     N1 3155   1.411   2.553   2.242 -0.0343 -0.1750 -0.0928
  223DMF     C2 3156   1.428   2.701   2.253  0.1935  0.5260 -0.0743
  223DMF     C3 3157   1.521   2.467   2.225 -0.2511 -0.1044  0.0935
  223DMF     O1 3158   1.519   2.349   2.254 -1.0303  0.7429  0.5065
  223DMF     H1 3159   1.210   2.548   2.226  0.7439  0.6000 -0.0902
  223DMF     H2 3160   1.274   2.528   2.390  1.6619  0.0044  0.5810
  223DMF     H3 3161   1.280   2.386   2.277  0.9588  0.2198  0.9801
  223DMF     H4 3162   1.461   2.708   2.358  1.6615  1.0809 -0.5698
  223DMF     H5 3163   1.335   2.754   2.230 -0.8272 -1.4016 -0.4942
  223DMF     H6 3164   1.507   2.734   2.185 -1.2538  1.8163 -1.1692
  223DMF     H7 3165   1.609   2.522   2.187  1.2472 -1.4711  1.5289
  224DMF     C1 3166   2.255   1.623   0.475  0.1374 -0.2428  0.0332
  224DMF     N1 3167   2.366   1.539   0.436 -0.1360 -0.6481 -0.5020
  224DMF     C2 3168   2.495   1.553   0.501  0.2493  0.2921  0.3507
  224DMF     C3 3169   2.363   1.461   0.321  1.1641  0.3295  0.6820
  224DMF     O1 3170   2.263   1.469   0.244  0.2699 -0.6159  0.5272
  224DMF     H1 3171   2.163   1.569   0.504 -0.4724  0.6263 -0.2474
  224DMF     H2 3172   2.229   1.689   0.392  0.5980 -2.0594 -1.5775
  224DMF     H3 3173   2.275   1.692   0.558  0.0958 -0.2184  0.0233
  224DMF     H4 3174   2.546   1.641   0.459  0.4388 -0.4780 -1.0547
  224DMF     H5 3175   2.554   1.462   0.490  0.8020  0.3991  2.1774
  224DMF     H6 3176   2.474   1.577   0.606 -0.2266 -1.1657  0.5945
  224DMF     H7 3177   2.450   1.396   0.302  0.6457  0.0460 -0.8398
  225DMF     C1 3178   2.724   0.379   3.371 -0.3887  0.1551  0.4533
  225DMF     N1 3179   2.853   0.328   3.325 -0.6708 -0.1736 -0.0396
  225DMF     C2 3180   2.876   0.299   3.179  0.0921 -0.8389 -0.4229
  225DMF     C3 3181   2.955   0.293   3.411 -0.9900  0.1860 -1.0781
  225DMF     O1 3182   2.951   0.303   3.538  0.1980 -0.1970 -0.0402
  225DMF     H1 3183   2.696   0.358   3.475 -0.6561  2.7782  0.9598
  225DMF     H2 3184   2.644   0.352   3.302 -1.6578 -0.2775  2.0747
  225DMF     H3 3185   2.731   0.489   3.370  0.5155  0.1106 -1.7936
  225DMF     H4 3186   2.962   0.232   3.170  0.0799 -0.7293 -1.4313
  225DMF     H5 3187   2.885   0.389   3.116 -4.2893 -0.4067 -0.6184
  225DMF     H6 3188   2.788   0.245   3.141 -1.1244  1.7474 -1.4428
  225DMF     H7 3189   3.043   0.250   3.360  0.2904  0.7956  0.5545
  226DMF     C1 3190   2.075   1.436   2.292 -0.2244 -0.3259  0.4877
  226DMF     N1 3191   2.107   1.294   2.261  0.1523  0.2520  0.5055
  226DMF     C2 3192   2.238   1.240   2.288  0.3440 -0.0705 -0.3857
  226DMF     C3 3193   2.006   1.206   2.210 -0.2063 -0.0886  0.3691
  226DMF     O1 3194   1.891   1.241   2.199 -0.6843 -0.0064  0.4913
  226DMF     H1 3195   2.052   1.478   2.194  0.4286 -0.5038  0.2593
  226DMF     H2 3196   2.156   1.490   2.343  0.1377 -1.5157  1.1890
  226DMF     H3 3197   1.979   1.443   2.345  1.4043  0.0536  3.5613
  226DMF     H4 3198   2.291   1.218   2.194 -1.0391 -0.8888 -1.0042
  226DMF     H5 3199   2.227   1.139   2.329 -1.2513  0.1223 -0.3105
  226DMF     H6 3200   2.296   1.301   2.358  0.5158 -0.7188  0.0343
  226DMF     H7 3201   2.035   1.101   2.191 -2.7365 -0.9956  1.3394
  227DMF     C1 3202   2.926   1.995   3.048 -0.1810  0.6951  0.5380
  227DMF     N1 3203   3.025   2.097   3.082 -0.4050  0.0335  0.5587
  227DMF     C2 3204   2.998   2.201   3.177 -0.7507 -0.1659 -0.5333
  227DMF     C3 3205   3.157   2.086   3.028 -0.7660  0.1834  0.4541
  227DMF     O1 3206   3.187   2.009   2.940 -0.1818 -0.1955 -0.5912
  227DMF     H1 3207   2.863   2.001   3.138  1.5761  1.0161  1.7659
  227DMF     H2 3208   2.961   1.892   3.032  0.8941  0.7974  2.0588
  227DMF     H3 3209   2.858   2.031   2.970  0.2409 -1.5409 -0.8842
  227DMF     H4 3210   3.025   2.302   3.144  2.3872  0.0722  2.5414
  227DMF     H5 3211   3.049   2.172   3.269  0.8444 -0.4542 -1.4867
  227DMF     H6 3212   2.895   2.197   3.213  0.0688 -0.0801  1.9300
  227DMF     H7 3213   3.224   2.165   3.067  0.8032 -0.2969 -1.1824
  228DMF     C1 3214   0.311   0.668   1.531  0.2145  0.2545 -0.1574
  228DMF     N1 3215   0.242   0.533   1.551  0.5758 -0.1062 -0.5797
  228DMF     C2 3216   0.318   0.409   1.553 -1.0867 -0.6644  0.1861
  228DMF     C3 3217   0.102   0.525   1.555 -0.0868  0.4230 -0.4910
  228DMF     O1 3218   0.021   0.609   1.516 -0.1396  0.4616 -0.2789
  228DMF     H1 3219   0.332   0.729   1.620 -4.5224  1.6620  0.1129
  228DMF     H2 3220   0.251   0.729   1.462 -0.6032  0.1224  0.4311
  228DMF     H3 3221   0.407   0.653   1.480 -0.1894 -2.3386 -0.2646
  228DMF     H4 3222   0.317   0.355   1.458  0.5252 -1.8478  0.8241
  228DMF     H5 3223   0.278   0.346   1.634 -0.1966  1.4368  2.3085
  228DMF     H6 3224   0.421   0.427   1.586 -0.9093  1.0185 -1.1826
  228DMF     H7 3225   0.076   0.426   1.597 -0.6398 -0.3005 -2.4751
  229DMF     C1 3226   3.365   2.451   1.545 -0.5448  0.0241 -0.4004
  229DMF     N1 3227   3.309   2.322   1.516  0.3883  0.1108  0.5881
  229DMF     C2 3228   3.161   2.313   1.518  0.3803  1.6349 -0.3485
  229DMF     C3 3229   3.396   2.220   1.462  0.0840 -0.5878  0.4560
  229DMF     O1 3230   3.515   2.230   1.462  0.1519 -0.3590 -0.1867
  229DMF     H1 3231   3.408   2.486   1.451 -0.2816 -2.9488 -1.4438
  229DMF     H2 3232   3.435   2.438   1.628 -0.1938 -1.6241 -0.9379
  229DMF     H3 3233   3.292   2.527   1.576  0.0805  0.4684 -0.0132
  229DMF     H4 3234   3.120   2.303   1.619 -1.8225  2.0639 -1.1744
  229DMF     H5 3235   3.149   2.219   1.462  1.4460 -1.6198  4.5892
  229DMF     H6 3236   3.101   2.380   1.456 -1.3653 -2.3656 -3.1908
  229DMF     H7 3237   3.340   2.137   1.415 -0.8126 -0.8940  2.0069
  230DMF     C1 3238   0.256   0.788   1.048  0.1929  0.4733  0.4192
  230DMF     N1 3239   0.124   0.773   1.109 -0.2910 -0.0859  0.1179
  230DMF     C2 3240   0.028   0.878   1.097  0.7660  0.5538  0.0828
  230DMF     C3 3241   0.112   0.670   1.200 -0.7845  0.3308 -0.3863
  230DMF     O1 3242   0.189   0.576   1.207 -0.1459 -0.0234  0.6384
  230DMF     H1 3243   0.275   0.700   0.986 -2.0561  1.2408 -1.4216
  230DMF     H2 3244   0.326   0.809   1.130 -0.9512  1.6129  1.1279
  230DMF     H3 3245   0.244   0.871   0.977  1.3580  1.2637  1.1256
  230DMF     H4 3246   0.041   0.941   1.186  0.5914 -1.1870  1.3615
  230DMF     H5 3247  -0.074   0.841   1.105  1.1975 -0.3008  2.0340
  230DMF     H6 3248   0.055   0.944   1.014 -0.0832  1.4220  0.4950
  230DMF     H7 3249   0.023   0.668   1.266  0.3250 -1.8243  1.1008
  231DMF     C1 3250   3.077   2.947   2.679  0.7237  0.1931  0.2667
  231DMF     N1 3251   3.177   3.014   2.595 -0.8875  0.2972  0.0776
  231DMF     C2 3252   3.142   3.162   2.571 -0.4371 -0.2784 -0.5119
  231DMF     C3 3253   3.296   2.961   2.553  0.4386 -0.0621  0.4513
  231DMF     O1 3254   3.323   2.841   2.576 -0.6101 -0.0899  0.6386
  231DMF     H1 3255   3.052   3.007   2.768  2.1933  1.0653  0.1095
  231DMF     H2 3256   3.123   2.860   2.726 -1.5559 -0.7127  0.8992
  231DMF     H3 3257   2.990   2.918   2.618  0.9254 -0.4713  0.2942
  231DMF     H4 3258   3.188   3.226   2.647 -0.5013 -0.7713 -0.0502
  231DMF     H5 3259   3.034   3.172   2.586 -0.3578 -0.3821  0.1535
  231DMF     H6 3260   3.166   3.193   2.469 -2.1723 -1.4801 -1.3065
  231DMF     H7 3261   3.362   3.034   2.505 -1.3523  1.7637  0.6922
  232DMF     C1 3262   0.787   0.429   3.426 -0.8871 -0.4422  0.1884
  232DMF     N1 3263   0.653   0.417   3.488 -0.4316  0.4406 -0.2250
  232DMF     C2 3264   0.528   0.419   3.406 -0.1484 -0.1016 -0.0608
  232DMF     C3 3265   0.644   0.407   3.625 -0.2343 -0.1278  0.1722
  232DMF     O1 3266   0.733   0.396   3.701  0.3595  0.1896  0.6191
  232DMF     H1 3267   0.813   0.346   3.359  2.0430  0.5231  0.0423
  232DMF     H2 3268   0.859   0.430   3.509  1.2825 -1.6065 -1.6204
  232DMF     H3 3269   0.796   0.525   3.375  1.4342  0.4607  2.2020
  232DMF     H4 3270   0.477   0.323   3.407  0.4797 -0.4388 -0.1718
  232DMF     H5 3271   0.556   0.454   3.306  0.7745  2.8851  1.1715
  232DMF     H6 3272   0.452   0.493   3.435  0.9702  0.2670  2.0403
  232DMF     H7 3273   0.536   0.399   3.650 -0.2524 -0.7997 -0.0890
  233DMF     C1 3274   0.617   0.203   1.469 -0.0483 -0.8170 -0.5750
  233DMF     N1 3275   0.705   0.088   1.507  0.4644 -0.2967  0.4057
  233DMF     C2 3276   0.844   0.094   1.495 -0.0954  0.4873 -0.6958
  233DMF     C3 3277   0.652  -0.031   1.545 -0.1484  0.3572 -0.6777
  233DMF     O1 3278   0.535  -0.056   1.535  0.2974  0.2283 -0.6648
  233DMF     H1 3279   0.597   0.204   1.361  1.3078  2.1244 -0.8601
  233DMF     H2 3280   0.667   0.298   1.494 -0.3654 -0.0821 -2.6533
  233DMF     H3 3281   0.518   0.202   1.517  0.2285  0.4821  0.0456
  233DMF     H4 3282   0.882   0.189   1.453 -0.0090 -0.2323 -2.2568
  233DMF     H5 3283   0.879   0.006   1.440  1.3335  0.8902 -0.4784
  233DMF     H6 3284   0.882   0.096   1.598 -1.3699  1.2375 -0.2290
  233DMF     H7 3285   0.726  -0.106   1.577 -0.4617  1.0219  1.6548
  234DMF     C1 3286   2.853   3.398   2.407  0.2536 -0.5396  0.0031
  234DMF     N1 3287   2.934   3.341   2.301 -0.0256 -0.0333  0.3097
  234DMF     C2 3288   2.927   3.193   2.274 -0.3757  0.0513  0.2548
  234DMF     C3 3289   3.021   3.420   2.223  0.2801  0.6377 -0.2631
  234DMF     O1 3290   3.044   3.538   2.248 -0.1325 -0.2378  1.0034
  234DMF     H1 3291   2.916   3.418   2.495 -2.2913  2.2142  1.2839
  234DMF     H2 3292   2.780   3.323   2.441  0.4327 -0.9809 -0.5850
  234DMF     H3 3293   2.810   3.495   2.379  0.5151  0.2080  2.0738
  234DMF     H4 3294   3.021   3.158   2.229 -0.8340  0.3188 -0.9230
  234DMF     H5 3295   2.845   3.183   2.203 -0.4129  4.2191 -0.4389
  234DMF     H6 3296   2.908   3.135   2.366 -1.6251  1.4070  0.8828
  234DMF     H7 3297   3.069   3.360   2.144  1.2797  0.9211  0.1206
  235DMF     C1 3298   3.332   2.024   3.499  0.4368 -0.4325 -0.0659
  235DMF     N1 3299   3.218   1.980   3.579  0.1535 -0.1341  0.2805
  235DMF     C2 3300   3.131   2.094   3.633 -0.3232 -0.1562  0.2676
  235DMF     C3 3301   3.186   1.843   3.602 -0.0199  0.3877 -0.2924
  235DMF     O1 3302   3.264   1.755   3.565 -0.2793 -0.0539  0.0537
  235DMF     H1 3303   3.421   1.977   3.541 -0.3530 -0.9830  0.9952
  235DMF     H2 3304   3.346   2.132   3.513  1.1791 -0.7240  1.5705
  235DMF     H3 3305   3.317   1.997   3.394  0.9966  1.1834 -0.5878
  235DMF     H4 3306   3.077   2.145   3.552  0.7806  1.0696  0.2868
  235DMF     H5 3307   3.194   2.167   3.685 -1.5011  0.5988  0.6780
  235DMF     H6 3308   3.060   2.047   3.703  2.8777 -0.4419  3.4596
  235DMF     H7 3309   3.088   1.826   3.650  0.7069 -0.1856  1.0172
  236DMF     C1 3310   0.684   2.443   2.622  0.1369  1.0525  0.5515
  236DMF     N1 3311   0.645   2.406   2.763 -0.4047 -0.5953  0.5041
  236DMF     C2 3312   0.743   2.452   2.862 -0.4139 -0.0247  0.3721
  236DMF     C3 3313   0.510   2.367   2.796  0.5231 -0.5549 -0.7648
  236DMF     O1 3314   0.427   2.337   2.710  0.0357 -0.0118 -0.1548
  236DMF     H1 3315   0.615   2.399   2.549  0.7068 -0.4251  0.9011
  236DMF     H2 3316   0.780   2.393   2.603  0.5412  1.1703  2.1643
  236DMF     H3 3317   0.707   2.549   2.604  0.5003  0.6404 -1.6093
  236DMF     H4 3318   0.718   2.545   2.915  0.4811 -1.0087  2.5806
  236DMF     H5 3319   0.845   2.460   2.825  0.2382 -1.7626  1.7042
  236DMF     H6 3320   0.738   2.371   2.937  0.5588 -0.9705 -0.5641
  236DMF     H7 3321   0.483   2.372   2.903  4.1615 -0.8562  0.2250
  237DMF     C1 3322   2.993   1.344   3.201 -1.1061 -0.4524  0.3331
  237DMF     N1 3323   2.885   1.369   3.105  0.1961  0.2600  0.0193
  237DMF     C2 3324   2.798   1.487   3.135  0.3958 -0.4103  0.3791
  237DMF     C3 3325   2.868   1.283   2.992  0.0030 -0.3811 -0.3803
  237DMF     O1 3326   2.937   1.184   2.977 -0.2159  0.2183  0.1698
  237DMF     H1 3327   3.024   1.444   3.235 -0.2762 -0.8437  0.7342
  237DMF     H2 3328   3.080   1.285   3.174 -0.5620  0.0927  0.8784
  237DMF     H3 3329   2.961   1.276   3.281 -2.7568 -0.6676 -0.4675
  237DMF     H4 3330   2.703   1.477   3.081 -1.2343  0.2092  3.0368
  237DMF     H5 3331   2.836   1.579   3.090  2.4883 -0.8967  1.1134
  237DMF     H6 3332   2.792   1.500   3.244  1.4880  1.3956  0.2442
  237DMF     H7 3333   2.797   1.328   2.921 -0.7543 -0.3208  0.3990
  238DMF     C1 3334   2.642   1.165   3.268 -0.0284  0.1353 -0.8296
  238DMF     N1 3335   2.737   1.132   3.370  0.2136 -0.1320  0.4621
  238DMF     C2 3336   2.727   1.198   3.503 -0.1351 -0.1038 -0.0493
  238DMF     C3 3337   2.826   1.027   3.356 -0.2836 -0.3277 -0.0382
  238DMF     O1 3338   2.835   0.953   3.256 -0.0404  0.0682  0.4600
  238DMF     H1 3339   2.550   1.199   3.318  0.3834  1.4049 -0.9027
  238DMF     H2 3340   2.621   1.075   3.209  2.5704 -2.6011  2.2576
  238DMF     H3 3341   2.678   1.249   3.208 -2.2272  1.6264 -0.1581
  238DMF     H4 3342   2.637   1.259   3.514 -1.3802 -2.3837  2.8700
  238DMF     H5 3343   2.828   1.238   3.521  0.2699 -0.6756 -0.9786
  238DMF     H6 3344   2.731   1.120   3.580  4.4282  3.3751  3.5652
  238DMF     H7 3345   2.884   1.015   3.450  0.6774 -0.4721 -0.6342
  239DMF     C1 3346   1.509   2.377   0.543  0.1016 -0.0376 -0.4292
  239DMF     N1 3347   1.434   2.258   0.510  0.4422 -0.1786  0.3919
  239DMF     C2 3348   1.367   2.185   0.625  0.8707 -0.1083 -0.0333
  239DMF     C3 3349   1.398   2.228   0.378 -0.2920  0.2648  0.1831
  239DMF     O1 3350   1.428   2.285   0.277 -0.0496 -0.0860  0.1785
  239DMF     H1 3351   1.615   2.355   0.524  0.4294  0.2173  1.0559
  239DMF     H2 3352   1.485   2.390   0.649  0.2786 -1.7772 -0.1658
  239DMF     H3 3353   1.473   2.461   0.483 -1.9248 -1.5320 -1.3658
  239DMF     H4 3354   1.400   2.208   0.727 -1.0700  0.7301  0.4372
  239DMF     H5 3355   1.371   2.079   0.595 -1.3453 -0.0213 -0.7567
  239DMF     H6 3356   1.260   2.209   0.618  0.3008 -1.7535  2.2217
  239DMF     H7 3357   1.328   2.143   0.382  1.5975 -1.3427  0.1064
  240DMF     C1 3358   1.037   2.170   0.227  0.1995  0.5268  0.0630
  240DMF     N1 3359   1.028   2.195   0.082 -0.1166 -0.0799  0.2778
  240DMF     C2 3360   1.160   2.196   0.007 -0.0269  0.2954 -0.1873
  240DMF     C3 3361   0.907   2.239   0.013 -0.3535 -0.1172 -0.3149
  240DMF     O1 3362   0.805   2.255   0.072 -0.3884 -0.4319 -0.0813
  240DMF     H1 3363   1.026   2.065   0.257 -1.4618  0.4754 -0.6883
  240DMF     H2 3364   0.965   2.234   0.278  0.9457 -0.5896  2.6003
  240DMF     H3 3365   1.139   2.198   0.258 -0.0380  2.6393 -1.0267
  240DMF     H4 3366   1.200   2.097   0.033  0.1744  0.4958  0.2955
  240DMF     H5 3367   1.225   2.275   0.047 -0.6340 -0.3198  2.1363
  240DMF     H6 3368   1.132   2.218  -0.096  0.6192 -0.3709 -0.5047
  240DMF     H7 3369   0.921   2.263  -0.094 -1.5670  0.3971 -0.3672
  241DMF     C1 3370   0.029   3.088   0.721  0.4578 -0.6663 -0.0357
  241DMF     N1 3371  -0.053   2.996   0.802  0.7155 -0.5584  0.9963
  241DMF     C2 3372  -0.150   3.048   0.901  0.5951  0.2910  0.0938
  241DMF     C3 3373  -0.054   2.858   0.766 -0.4700  0.0150  0.1039
  241DMF     O1 3374   0.015   2.823   0.676  0.5909  0.4688 -0.2957
  241DMF     H1 3375   0.025   3.058   0.616  2.7185  1.7029 -0.8505
  241DMF     H2 3376   0.133   3.094   0.755  0.1827  1.9831  0.4320
  241DMF     H3 3377  -0.015   3.186   0.741  1.1888 -0.5245  0.9259
  241DMF     H4 3378  -0.129   3.007   1.001 -1.9436 -1.7124 -0.1653
  241DMF     H5 3379  -0.256   3.028   0.883  0.8446 -1.6185  0.6793
  241DMF     H6 3380  -0.143   3.158   0.898  0.5908  0.2631 -3.7975
  241DMF     H7 3381  -0.124   2.795   0.823 -0.0968  2.0996  2.9777
  242DMF     C1 3382   3.020   2.564   2.797  0.0024 -0.2005  0.6639
  242DMF     N1 3383   2.905   2.555   2.891  0.1128 -0.1632  0.0324
  242DMF     C2 3384   2.911   2.641   3.011  0.1909 -0.4109  0.3723
  242DMF     C3 3385   2.788   2.476   2.867 -0.5134  0.0369  0.2211
  242DMF     O1 3386   2.771   2.418   2.763 -0.5669  0.4474 -0.5831
  242DMF     H1 3387   3.084   2.477   2.818  0.9331 -0.0146 -1.3117
  242DMF     H2 3388   3.080   2.653   2.818 -0.5307  0.2568  0.2408
  242DMF     H3 3389   2.991   2.586   2.694  1.2207 -1.3844  0.0524
  242DMF     H4 3390   2.820   2.655   3.070 -0.6971  1.8791 -1.4162
  242DMF     H5 3391   2.967   2.732   2.983  0.4251  0.0066  2.1480
  242DMF     H6 3392   2.986   2.586   3.068  1.7942 -0.5500 -1.8129
  242DMF     H7 3393   2.716   2.479   2.951  0.9043 -0.6434  1.4925
  243DMF     C1 3394   0.686   1.665   2.354  0.0308  0.0965  0.5333
  243DMF     N1 3395   0.834   1.638   2.364  1.0736  0.3262 -0.6035
  243DMF     C2 3396   0.917   1.649   2.246 -0.4693 -0.5987  0.4909
  243DMF     C3 3397   0.890   1.607   2.486  1.0229  0.1240 -0.0881
  243DMF     O1 3398   0.825   1.612   2.590 -0.4393  0.4952  0.0343
  243DMF     H1 3399   0.649   1.609   2.267 -0.2189  1.1022 -0.0088
  243DMF     H2 3400   0.665   1.769   2.329 -2.3050 -0.6590 -0.8122
  243DMF     H3 3401   0.635   1.637   2.447 -1.1616  0.5347  0.0201
  243DMF     H4 3402   1.025   1.630   2.258 -0.4448  0.3733  1.9273
  243DMF     H5 3403   0.907   1.753   2.214 -0.9702 -1.6685 -3.0949
  243DMF     H6 3404   0.874   1.580   2.173 -0.8416 -1.2343  1.3036
  243DMF     H7 3405   1.000   1.600   2.479  1.0184  0.7639 -0.7841
  244DMF     C1 3406   2.907   2.511   1.104 -0.0819  0.3634  0.1441
  244DMF     N1 3407   2.899   2.365   1.122 -0.2660 -0.2750  0.9406
  244DMF     C2 3408   2.782   2.287   1.101  0.4815  0.8527 -0.5714
  244DMF     C3 3409   3.016   2.305   1.182  0.1342 -0.0908 -0.2167
  244DMF     O1 3410   3.121   2.369   1.199  0.2417 -0.9986  0.3373
  244DMF     H1 3411   2.988   2.541   1.036  0.4772 -3.1850 -0.8861
  244DMF     H2 3412   2.927   2.563   1.198  0.1064  0.7434 -0.1064
  244DMF     H3 3413   2.817   2.552   1.055 -0.2655 -1.2204 -0.9176
  244DMF     H4 3414   2.763   2.238   1.197 -0.5240 -1.4416 -1.8991
  244DMF     H5 3415   2.795   2.207   1.027  0.0148 -1.7364  2.0273
  244DMF     H6 3416   2.696   2.352   1.081 -1.0480  0.0131  2.8877
  244DMF     H7 3417   3.004   2.199   1.211  0.2405  0.2902  1.2580
  245DMF     C1 3418   2.349   1.424   3.209  0.4163 -0.4189  0.0573
  245DMF     N1 3419   2.343   1.430   3.361  0.2015  0.2505 -0.0443
  245DMF     C2 3420   2.225   1.360   3.427  0.7814  0.5927  0.3705
  245DMF     C3 3421   2.412   1.524   3.433 -0.2662 -0.0316 -0.0913
  245DMF     O1 3422   2.491   1.599   3.374  0.1324 -0.5216 -0.6595
  245DMF     H1 3423   2.285   1.342   3.173  0.9232 -0.9769  0.4168
  245DMF     H2 3424   2.449   1.384   3.191  0.2023 -0.6963 -0.5426
  245DMF     H3 3425   2.330   1.519   3.158  3.4377 -0.4639 -1.2384
  245DMF     H4 3426   2.151   1.340   3.350 -0.1418 -1.3612  1.7236
  245DMF     H5 3427   2.172   1.429   3.494  1.2316  0.2705  1.0751
  245DMF     H6 3428   2.263   1.274   3.483  1.0231  0.2710 -0.2891
  245DMF     H7 3429   2.397   1.523   3.543 -1.1587 -0.1293 -0.2107
  246DMF     C1 3430   0.091   1.892   0.029  0.2418  0.6461 -0.2913
  246DMF     N1 3431   0.053   1.835   0.154  0.0443 -0.0363 -0.1068
  246DMF     C2 3432   0.067   1.916   0.280 -1.0117  0.5590  0.0571
  246DMF     C3 3433  -0.004   1.702   0.164  0.6415 -0.1541 -0.0085
  246DMF     O1 3434  -0.010   1.620   0.070  0.2247 -0.1862 -0.0658
  246DMF     H1 3435   0.018   1.865  -0.049  0.1651 -0.1951  0.0685
  246DMF     H2 3436   0.183   1.846  -0.009  0.6072  1.2228 -0.1085
  246DMF     H3 3437   0.096   2.002   0.032 -0.1349  0.6327  0.8949
  246DMF     H4 3438   0.154   1.981   0.266 -2.1266  1.5721 -2.5347
  246DMF     H5 3439   0.083   1.851   0.367  0.2139 -0.5919 -1.0023
  246DMF     H6 3440  -0.021   1.977   0.302 -1.6533  0.0826 -1.1164
  246DMF     H7 3441  -0.026   1.677   0.269  0.0560 -1.0250 -0.3288
  247DMF     C1 3442   1.556   1.804   0.130  0.0623  0.2042  0.5031
  247DMF     N1 3443   1.412   1.832   0.096  0.1776 -0.4570 -0.0456
  247DMF     C2 3444   1.366   1.779  -0.036 -0.1849 -0.3374 -0.0853
  247DMF     C3 3445   1.324   1.871   0.204  0.3446  0.0657  0.6549
  247DMF     O1 3446   1.370   1.899   0.309 -0.5333  0.3920  0.1858
  247DMF     H1 3447   1.624   1.889   0.113  0.0804 -0.2987 -2.0187
  247DMF     H2 3448   1.590   1.729   0.058  1.0723  0.6315  0.5218
  247DMF     H3 3449   1.567   1.765   0.233  2.1672 -0.9379 -0.1175
  247DMF     H4 3450   1.449   1.772  -0.107 -0.2302 -0.1935 -0.1517
  247DMF     H5 3451   1.283   1.838  -0.076 -2.1003 -1.2963  2.3126
  247DMF     H6 3452   1.333   1.677  -0.016 -2.4030  0.3674 -0.0303
  247DMF     H7 3453   1.215   1.866   0.188  0.4621  1.9870 -0.9597
  248DMF     C1 3454   2.006   1.946   1.508  0.5859  0.7417  0.1924
  248DMF     N1 3455   2.130   1.870   1.516  0.1946 -0.4275  0.6132
  248DMF     C2 3456   2.120   1.727   1.506 -0.1435  0.1158  0.5090
  248DMF     C3 3457   2.251   1.926   1.555  0.2473 -0.3459  0.4798
  248DMF     O1 3458   2.256   2.050   1.575 -0.3027  0.3010  0.7327
  248DMF     H1 3459   2.010   2.036   1.445 -1.3760 -0.8116 -2.2436
  248DMF     H2 3460   1.966   1.979   1.604 -2.2377 -1.9152 -0.0086
  248DMF     H3 3461   1.926   1.879   1.474  0.2882  1.4978 -0.6297
  248DMF     H4 3462   2.186   1.670   1.573  1.2125  0.6448 -0.3516
  248DMF     H5 3463   2.148   1.689   1.407  0.1393 -2.8326  1.6581
  248DMF     H6 3464   2.015   1.707   1.528 -0.2487  0.5647  0.4164
  248DMF     H7 3465   2.336   1.855   1.564  0.0444 -0.7584 -0.6995
  249DMF     C1 3466   2.874   1.421   2.645  0.1857 -0.0304  0.8734
  249DMF     N1 3467   2.887   1.542   2.732  0.1075  0.4232  0.0161
  249DMF     C2 3468   3.016   1.608   2.745  1.0581 -0.5393 -0.1336
  249DMF     C3 3469   2.767   1.601   2.772  0.2274  0.2972  0.8829
  249DMF     O1 3470   2.658   1.544   2.766 -0.7610  0.3642  0.1383
  249DMF     H1 3471   2.820   1.457   2.557  2.4388 -1.0592 -0.9997
  249DMF     H2 3472   2.833   1.330   2.689 -0.1671 -2.1750 -3.6122
  249DMF     H3 3473   2.975   1.388   2.616 -0.6128 -1.5150 -0.2988
  249DMF     H4 3474   2.999   1.712   2.714 -2.0274 -1.3760 -1.3998
  249DMF     H5 3475   3.086   1.567   2.671  0.0803 -0.7718 -0.9342
  249DMF     H6 3476   3.055   1.612   2.848  1.0180 -0.0537 -0.1350
  249DMF     H7 3477   2.776   1.705   2.810  0.6719  0.4139  0.4597
  250DMF     C1 3478   2.076   3.033   2.239  0.1932 -0.2518 -0.2603
  250DMF     N1 3479   1.924   3.015   2.226  0.3512 -0.1346  0.5944
  250DMF     C2 3480   1.869   2.876   2.236 -0.8729  0.1645  0.0484
  250DMF     C3 3481   1.837   3.119   2.259  0.4038 -0.4125  0.6980
  250DMF     O1 3482   1.875   3.232   2.278  0.0863 -0.1721  0.9033
  250DMF     H1 3483   2.094   3.136   2.208 -0.6817  0.2111  0.7410
  250DMF     H2 3484   2.123   2.966   2.166 -1.2179 -2.1387  0.4962
  250DMF     H3 3485   2.117   2.997   2.334  1.1167 -2.3849 -1.4213
  250DMF     H4 3486   1.763   2.880   2.208 -0.4527 -1.0221 -1.7690
  250DMF     H5 3487   1.894   2.832   2.333 -0.0203  1.1084  0.2595
  250DMF     H6 3488   1.912   2.803   2.166  0.2134 -1.1627  2.0639
  250DMF     H7 3489   1.731   3.086   2.265  0.2318 -0.1815 -0.8722
  251DMF     C1 3490   1.631   0.467   1.186  0.2933 -0.6007 -0.3827
  251DMF     N1 3491   1.573   0.340   1.218 -0.2536 -0.4769  0.4219
  251DMF     C2 3492   1.576   0.288   1.352 -0.1441 -0.4004  0.2688
  251DMF     C3 3493   1.502   0.272   1.124 -0.1438 -0.8691 -0.2400
  251DMF     O1 3494   1.502   0.304   1.008  0.2447  0.1400  0.1890
  251DMF     H1 3495   1.616   0.494   1.081  1.0668  1.9282  0.1153
  251DMF     H2 3496   1.740   0.457   1.201  0.2930 -0.9497 -0.5971
  251DMF     H3 3497   1.583   0.548   1.241 -0.7178 -1.7871  0.5114
  251DMF     H4 3498   1.681   0.269   1.376 -0.1784 -2.1735 -0.8686
  251DMF     H5 3499   1.520   0.194   1.353 -0.6397 -0.0871  2.3763
  251DMF     H6 3500   1.526   0.366   1.410 -1.5585  0.4377 -2.0016
  251DMF     H7 3501   1.452   0.182   1.165 -0.8271 -0.3808 -0.0025
  252DMF     C1 3502   0.561   0.252   0.175  0.7338  0.3094  0.2259
  252DMF     N1 3503   0.438   0.204   0.256 -0.0549 -0.0922 -0.4342
  252DMF     C2 3504   0.353   0.311   0.323  0.1806 -0.3237 -0.1286
  252DMF     C3 3505   0.410   0.071   0.284  0.0071  0.0438 -0.0468
  252DMF     O1 3506   0.485  -0.015   0.235  0.1253 -0.4088  0.1762
  252DMF     H1 3507   0.585   0.355   0.205  1.3910  0.5741 -1.2090
  252DMF     H2 3508   0.542   0.248   0.068 -1.9995 -2.9871  0.7420
  252DMF     H3 3509   0.638   0.181   0.206  0.1448  0.0839  1.2162
  252DMF     H4 3510   0.417   0.398   0.339  1.1789 -1.1224  0.2519
  252DMF     H5 3511   0.309   0.280   0.419  0.5538  0.5739  0.3405
  252DMF     H6 3512   0.266   0.347   0.266  0.0194 -0.2384  0.1685
  252DMF     H7 3513   0.320   0.042   0.341 -0.1621 -3.5598 -1.9646
  253DMF     C1 3514   1.736   3.125   2.862  0.5664  0.4797  0.3227
  253DMF     N1 3515   1.836   3.140   2.748  0.0470 -0.1812 -0.4514
  253DMF     C2 3516   1.944   3.042   2.737 -0.1109 -0.2935 -0.2040
  253DMF     C3 3517   1.811   3.224   2.641 -0.4034  0.0770 -0.2782
  253DMF     O1 3518   1.716   3.290   2.631  0.3391 -0.3101 -0.6514
  253DMF     H1 3519   1.631   3.126   2.830  0.6803 -0.4737 -0.1137
  253DMF     H2 3520   1.762   3.200   2.937  1.9262  2.2183 -1.8206
  253DMF     H3 3521   1.747   3.027   2.910  0.3214  0.0581 -0.4589
  253DMF     H4 3522   2.025   3.094   2.685 -0.9408  0.7309 -0.4758
  253DMF     H5 3523   1.908   2.964   2.669 -0.4064 -0.6619  0.3657
  253DMF     H6 3524   1.980   3.007   2.835 -1.4958  0.0049  0.4258
  253DMF     H7 3525   1.890   3.236   2.566 -0.4899  1.7945 -0.1191
  254DMF     C1 3526   2.487   2.662   0.785 -0.7807  0.3478 -0.5227
  254DMF     N1 3527   2.458   2.511   0.775  0.1088 -0.3502 -0.1430
  254DMF     C2 3528   2.455   2.445   0.899  0.5066  0.1214  0.2486
  254DMF     C3 3529   2.448   2.441   0.653 -0.1239  0.1723  1.1115
  254DMF     O1 3530   2.443   2.493   0.546 -0.2267  0.4017 -0.0313
  254DMF     H1 3531   2.392   2.714   0.800 -0.1888  1.2874  0.0822
  254DMF     H2 3532   2.531   2.695   0.690 -0.1570 -0.1525 -0.4129
  254DMF     H3 3533   2.550   2.684   0.873  0.9689 -1.2569 -1.3273
  254DMF     H4 3534   2.440   2.339   0.878 -2.1432  0.8800 -2.0388
  254DMF     H5 3535   2.364   2.489   0.942  1.6009  1.2988  1.4226
  254DMF     H6 3536   2.544   2.463   0.960  0.2921  0.5528  0.4464
  254DMF     H7 3537   2.434   2.334   0.677 -1.2096 -0.5548 -2.5000
  255DMF     C1 3538   0.052   2.655   3.657  0.2074  0.1670 -0.0962
  255DMF     N1 3539   0.000   2.784   3.710  0.3830  0.5329 -0.0088
  255DMF     C2 3540  -0.148   2.801   3.705  0.0343 -0.3307  0.3073
  255DMF     C3 3541   0.093   2.889   3.739 -0.1482  0.2732  0.0741
  255DMF     O1 3542   0.215   2.874   3.750  0.0209 -0.5972  0.0668
  255DMF     H1 3543   0.106   2.673   3.563  0.3156  0.0512 -0.0562
  255DMF     H2 3544  -0.031   2.584   3.646 -0.0502  0.4444  0.0564
  255DMF     H3 3545   0.123   2.621   3.733 -0.8024  0.3078  0.9159
  255DMF     H4 3546  -0.169   2.830   3.602  0.9881  1.7271  0.6686
  255DMF     H5 3547  -0.168   2.881   3.777  1.2826 -0.9240  1.3355
  255DMF     H6 3548  -0.206   2.709   3.723 -0.6255 -0.0223 -0.2402
  255DMF     H7 3549   0.050   2.990   3.728  0.0095  0.3396  0.0721
  256DMF     C1 3550   2.190   3.325   0.820  0.3722 -0.7684  0.0522
  256DMF     N1 3551   2.249   3.198   0.797 -0.3483 -0.7928 -0.1430
  256DMF     C2 3552   2.222   3.087   0.893 -0.4887  0.0406 -0.0614
  256DMF     C3 3553   2.314   3.170   0.671 -0.7471 -0.6454 -0.5324
  256DMF     O1 3554   2.346   3.256   0.589  0.3694  0.3297  0.3934
  256DMF     H1 3555   2.108   3.327   0.893  1.8803  1.0488  1.7311
  256DMF     H2 3556   2.143   3.364   0.729 -0.4244 -0.4432  0.5885
  256DMF     H3 3557   2.260   3.396   0.864 -0.5307  0.6105 -0.7096
  256DMF     H4 3558   2.293   3.080   0.977  1.7809  0.3704 -1.9194
  256DMF     H5 3559   2.218   2.995   0.835 -1.7330 -0.1014  0.2369
  256DMF     H6 3560   2.122   3.106   0.934 -0.3569  1.5659 -0.4274
  256DMF     H7 3561   2.327   3.061   0.653  1.0832 -0.8183  1.5607
  257DMF     C1 3562   3.175   1.020   1.556 -0.3592 -0.3050 -0.5863
  257DMF     N1 3563   3.070   0.969   1.468  0.1920  0.6825  0.4085
  257DMF     C2 3564   2.925   0.958   1.525  0.2394 -0.0202  0.6576
  257DMF     C3 3565   3.081   0.960   1.331 -0.0725 -0.0002 -0.0285
  257DMF     O1 3566   3.179   0.983   1.258  0.0525  0.1040  0.0908
  257DMF     H1 3567   3.120   1.078   1.631  2.5393 -1.9843  2.9813
  257DMF     H2 3568   3.244   1.087   1.502 -0.0338  0.0635  0.2800
  257DMF     H3 3569   3.239   0.942   1.600  1.3083  0.7403 -1.0995
  257DMF     H4 3570   2.893   1.035   1.596 -0.7256  0.5666 -0.4001
  257DMF     H5 3571   2.923   0.860   1.576  0.2033  0.2473  1.1729
  257DMF     H6 3572   2.845   0.961   1.451  0.3204 -0.2807  0.5585
  257DMF     H7 3573   2.991   0.910   1.291  0.1640  1.3742 -2.3926
  258DMF     C1 3574   3.171   2.452   3.517  0.4434  0.0118  0.0810
  258DMF     N1 3575   3.230   2.499   3.387  0.4559 -0.3523 -0.0577
  258DMF     C2 3576   3.223   2.640   3.350  0.0568 -0.3501  0.7026
  258DMF     C3 3577   3.274   2.414   3.293 -0.5154 -0.2871 -0.2159
  258DMF     O1 3578   3.290   2.297   3.321 -0.3098 -0.3053 -0.0646
  258DMF     H1 3579   3.070   2.410   3.517  0.3518  0.2262 -0.6454
  258DMF     H2 3580   3.167   2.528   3.596 -0.9019 -0.9507  0.9643
  258DMF     H3 3581   3.235   2.372   3.557 -0.2633 -0.3181  0.5593
  258DMF     H4 3582   3.151   2.644   3.267  1.0460 -0.2283 -0.1736
  258DMF     H5 3583   3.322   2.677   3.323  1.1146 -0.9016  3.6354
  258DMF     H6 3584   3.181   2.699   3.432 -0.5322  0.2894 -0.0577
  258DMF     H7 3585   3.307   2.470   3.203  1.1989 -1.4986 -0.3683
  259DMF     C1 3586   1.443   1.428   2.232 -0.3206 -0.4448 -0.8509
  259DMF     N1 3587   1.429   1.439   2.371 -0.3436  0.3629 -0.5766
  259DMF     C2 3588   1.515   1.371   2.467  0.7274  0.1671 -0.4565
  259DMF     C3 3589   1.308   1.499   2.423  0.1778 -0.1870 -0.0136
  259DMF     O1 3590   1.220   1.558   2.356 -0.2476  0.5903  0.7071
  259DMF     H1 3591   1.545   1.388   2.225 -0.9675 -2.2517 -0.0923
  259DMF     H2 3592   1.422   1.525   2.185 -3.3042  0.3629  1.9546
  259DMF     H3 3593   1.370   1.352   2.204 -1.9004  0.9954 -0.7171
  259DMF     H4 3594   1.582   1.295   2.425  1.0720 -0.4658  1.1623
  259DMF     H5 3595   1.451   1.325   2.544  1.7793 -1.0785 -0.2935
  259DMF     H6 3596   1.577   1.446   2.518 -3.7605  2.8197  1.3404
  259DMF     H7 3597   1.294   1.494   2.532  0.2038  1.9019  0.1076
  260DMF     C1 3598   0.287   2.649   1.461  0.4087 -0.2589 -0.2060
  260DMF     N1 3599   0.391   2.548   1.453  0.2912  0.1149  0.1021
  260DMF     C2 3600   0.393   2.439   1.554 -0.6985  0.0726 -0.7515
  260DMF     C3 3601   0.483   2.542   1.349 -0.1361  0.3247 -0.3978
  260DMF     O1 3602   0.489   2.624   1.260  0.5512 -0.3909 -0.0203
  260DMF     H1 3603   0.209   2.620   1.532  1.6347 -0.2793  1.1368
  260DMF     H2 3604   0.246   2.663   1.360  0.8319  1.2144 -0.1867
  260DMF     H3 3605   0.342   2.739   1.491  0.5776 -0.3686 -0.1852
  260DMF     H4 3606   0.436   2.343   1.524  0.0274 -0.4404  1.7765
  260DMF     H5 3607   0.292   2.414   1.588 -0.2637  0.2342  0.7443
  260DMF     H6 3608   0.456   2.482   1.633 -1.4303 -0.1391 -0.0352
  260DMF     H7 3609   0.533   2.444   1.355  0.2239  0.5016 -0.5489
  261DMF     C1 3610   0.289   1.725   1.348  0.0267  0.2397 -0.0384
  261DMF     N1 3611   0.311   1.625   1.456  0.3002  0.2440  0.0524
  261DMF     C2 3612   0.223   1.647   1.577  0.1441 -0.0477 -0.2127
  261DMF     C3 3613   0.425   1.542   1.456 -0.2354 -0.0950 -0.5778
  261DMF     O1 3614   0.509   1.546   1.370 -0.6439  0.2511 -0.1448
  261DMF     H1 3615   0.357   1.720   1.263  0.5017 -0.2824  0.3673
  261DMF     H2 3616   0.313   1.823   1.393  0.8923  0.2341 -0.4831
  261DMF     H3 3617   0.191   1.734   1.300  0.8502  0.4835 -1.7057
  261DMF     H4 3618   0.137   1.707   1.546 -1.5046 -0.9748  2.5008
  261DMF     H5 3619   0.276   1.714   1.646 -0.7054 -0.0875  0.4802
  261DMF     H6 3620   0.196   1.549   1.619 -0.7982  0.1427 -0.3622
  261DMF     H7 3621   0.442   1.474   1.541 -1.1143  0.4379  0.0362
  262DMF     C1 3622   2.057   0.191   0.329 -0.1530 -0.5070  0.8064
  262DMF     N1 3623   2.116   0.099   0.434 -0.4958  0.1356  0.2485
  262DMF     C2 3624   2.209   0.162   0.536 -0.0650  0.3001 -0.3412
  262DMF     C3 3625   2.098  -0.042   0.426 -0.1501 -0.7222 -0.1246
  262DMF     O1 3626   2.044  -0.098   0.332  0.3243  0.4085  0.5282
  262DMF     H1 3627   2.062   0.289   0.380  2.6093  0.0575 -0.4585
  262DMF     H2 3628   1.953   0.171   0.301 -0.1092 -1.6517  1.4375
  262DMF     H3 3629   2.123   0.196   0.242 -0.5402 -0.0493  0.5328
  262DMF     H4 3630   2.310   0.134   0.505 -1.7363 -2.1084 -4.0447
  262DMF     H5 3631   2.188   0.135   0.640 -1.4964  1.4938 -0.3028
  262DMF     H6 3632   2.202   0.271   0.534  1.5162  0.3779 -1.7041
  262DMF     H7 3633   2.142  -0.091   0.514 -0.0654 -2.0601 -0.8907
  263DMF     C1 3634   3.306   2.298   2.276  0.4990 -0.5891 -0.3760
  263DMF     N1 3635   3.290   2.154   2.236 -0.0723 -0.1439  0.5177
  263DMF     C2 3636   3.409   2.079   2.235 -0.7773 -0.0810 -0.4238
  263DMF     C3 3637   3.160   2.098   2.211 -0.4218 -0.3601 -0.1991
  263DMF     O1 3638   3.060   2.162   2.232  0.1739 -0.0069 -0.6349
  263DMF     H1 3639   3.235   2.358   2.218  0.6839 -0.9183 -0.9466
  263DMF     H2 3640   3.411   2.329   2.268  0.5518 -0.6996 -0.1154
  263DMF     H3 3641   3.275   2.307   2.381  0.3224  1.4647 -0.5792
  263DMF     H4 3642   3.474   2.099   2.321  2.0428 -1.1494 -2.2306
  263DMF     H5 3643   3.471   2.106   2.149  0.2737 -1.9959 -0.2872
  263DMF     H6 3644   3.384   1.973   2.223  0.9855 -0.5056 -0.4990
  263DMF     H7 3645   3.161   1.989   2.192  1.1198 -0.9724  3.0259
  264DMF     C1 3646   2.542   0.566   3.091 -0.4529 -0.4010  0.5674
  264DMF     N1 3647   2.508   0.650   3.210  0.3811 -0.2596 -0.7424
  264DMF     C2 3648   2.593   0.772   3.230  0.7188 -0.5474  0.7135
  264DMF     C3 3649   2.395   0.624   3.296 -0.1610 -0.5746  0.3907
  264DMF     O1 3650   2.311   0.536   3.279 -0.1320 -0.2840  0.1533
  264DMF     H1 3651   2.640   0.519   3.106 -0.0253  0.4929  0.5930
  264DMF     H2 3652   2.559   0.623   2.999  1.2956 -0.8207  0.5994
  264DMF     H3 3653   2.470   0.486   3.068 -0.9432  0.6913 -1.7720
  264DMF     H4 3654   2.558   0.856   3.169 -2.8670 -0.5721  2.5961
  264DMF     H5 3655   2.701   0.761   3.217  0.9937 -1.2789  3.3146
  264DMF     H6 3656   2.587   0.810   3.333 -1.8677  0.2085  0.3176
  264DMF     H7 3657   2.385   0.703   3.373  0.2719  1.5454 -1.6734
  265DMF     C1 3658   2.182   0.665   3.718 -0.4692  0.2843 -0.7346
  265DMF     N1 3659   2.053   0.633   3.773  0.3424  0.7739  0.1528
  265DMF     C2 3660   2.039   0.500   3.827  0.9151 -0.5667  0.2583
  265DMF     C3 3661   1.953   0.731   3.785  0.1121  0.2249 -0.1941
  265DMF     O1 3662   1.962   0.842   3.744  0.4700 -0.2344  0.7531
  265DMF     H1 3663   2.257   0.610   3.777 -1.6328 -2.3830 -1.6742
  265DMF     H2 3664   2.212   0.769   3.735  0.1990 -0.0391  0.1303
  265DMF     H3 3665   2.190   0.646   3.610  2.1030 -0.3706 -0.4709
  265DMF     H4 3666   2.133   0.448   3.804  0.4103 -1.9184  1.1932
  265DMF     H5 3667   1.950   0.463   3.776  0.6393  0.3293  0.0839
  265DMF     H6 3668   2.024   0.501   3.936  0.8548  0.5361  0.2415
  265DMF     H7 3669   1.861   0.691   3.833  0.0753  0.6290  0.0797
  266DMF     C1 3670   1.890   1.126   2.555  0.0206 -0.2826  0.6311
  266DMF     N1 3671   1.861   1.204   2.676 -0.3598 -0.0582  1.2242
  266DMF     C2 3672   1.761   1.151   2.767 -0.3030 -0.0840  0.0331
  266DMF     C3 3673   1.916   1.333   2.705  0.4153 -1.0281  0.5661
  266DMF     O1 3674   2.000   1.383   2.635  0.3681  0.7158  0.1994
  266DMF     H1 3675   1.939   1.191   2.481  2.6955  0.0603  2.6054
  266DMF     H2 3676   1.791   1.111   2.511  0.7463  0.0524 -1.1439
  266DMF     H3 3677   1.950   1.038   2.579 -0.3608 -0.3418  1.4073
  266DMF     H4 3678   1.675   1.117   2.708 -1.5745 -0.2391  1.9292
  266DMF     H5 3679   1.719   1.228   2.833  1.1664  0.6934  0.0858
  266DMF     H6 3680   1.806   1.070   2.825  0.9907  0.6499  0.0749
  266DMF     H7 3681   1.882   1.380   2.799  0.6756 -1.1647  0.7280
  267DMF     C1 3682   3.342   0.441   0.926 -0.8326  0.0799  0.1244
  267DMF     N1 3683   3.236   0.549   0.938 -0.2645 -0.9554  0.1680
  267DMF     C2 3684   3.198   0.629   0.825  0.0947 -0.1962 -0.1821
  267DMF     C3 3685   3.172   0.574   1.060 -0.0388  0.2852 -0.4086
  267DMF     O1 3686   3.206   0.514   1.163  0.4399 -0.3094  0.3610
  267DMF     H1 3687   3.331   0.380   0.836  2.0361 -0.3920  0.0439
  267DMF     H2 3688   3.348   0.384   1.018  0.5476 -2.0534 -1.2501
  267DMF     H3 3689   3.442   0.484   0.909 -0.7473 -1.0338 -2.3840
  267DMF     H4 3690   3.259   0.720   0.835 -0.5745  0.4926 -2.2428
  267DMF     H5 3691   3.091   0.652   0.827  0.6379  2.4776 -0.1955
  267DMF     H6 3692   3.232   0.578   0.735 -0.4422  0.2259 -0.6275
  267DMF     H7 3693   3.091   0.650   1.059 -0.1095  0.2272  0.6455
  268DMF     C1 3694   1.758   2.072   0.430 -0.5693 -0.5522  1.3800
  268DMF     N1 3695   1.806   2.121   0.299  0.1912 -0.1899  0.3039
  268DMF     C2 3696   1.707   2.188   0.216  0.1121  0.6758  0.2553
  268DMF     C3 3697   1.941   2.129   0.279 -1.2518 -0.0166  0.4282
  268DMF     O1 3698   2.024   2.092   0.367  0.0989  0.3708 -0.5218
  268DMF     H1 3699   1.830   2.001   0.470  1.1967 -1.0221 -2.3477
  268DMF     H2 3700   1.663   2.022   0.410 -0.8162  0.2778  0.3838
  268DMF     H3 3701   1.737   2.153   0.501 -0.7443 -1.3496  2.2392
  268DMF     H4 3702   1.672   2.280   0.263 -0.1514  1.5443 -1.5878
  268DMF     H5 3703   1.635   2.118   0.169  0.6594  0.0957  0.2783
  268DMF     H6 3704   1.764   2.222   0.129  0.2729  3.0276  1.2733
  268DMF     H7 3705   1.977   2.170   0.183  1.8446 -2.1335  0.6074
  269DMF     C1 3706   1.005   3.107   3.195 -0.9477 -0.1679 -0.1947
  269DMF     N1 3707   0.885   3.161   3.127  0.2544 -0.3398 -0.1140
  269DMF     C2 3708   0.750   3.138   3.187 -0.4153 -0.1387  0.0306
  269DMF     C3 3709   0.900   3.205   2.994  0.0890  0.1601 -0.4558
  269DMF     O1 3710   1.007   3.230   2.943 -0.7450  0.3140  0.0397
  269DMF     H1 3711   1.002   3.104   3.304 -1.1199 -2.1441 -0.2366
  269DMF     H2 3712   1.083   3.180   3.172 -1.1345 -0.6476 -2.5260
  269DMF     H3 3713   1.039   3.012   3.152 -0.3642 -0.0128 -0.0836
  269DMF     H4 3714   0.732   3.030   3.186  0.4737 -0.2948 -0.4331
  269DMF     H5 3715   0.674   3.184   3.122  2.0686  2.8615 -0.8466
  269DMF     H6 3716   0.740   3.174   3.290 -0.5357  0.2008 -0.0992
  269DMF     H7 3717   0.807   3.233   2.940 -0.3198  0.8723  0.5913
  270DMF     C1 3718   0.073   2.679   1.080 -0.4112 -0.4664  0.4077
  270DMF     N1 3719   0.034   2.544   1.076 -0.4592  0.1834  0.3101
  270DMF     C2 3720   0.105   2.440   1.155 -0.4702 -0.0728 -0.5702
  270DMF     C3 3721  -0.064   2.500   0.982 -0.1057  0.1608 -0.1909
  270DMF     O1 3722  -0.123   2.580   0.912  0.1302  0.0805  0.9771
  270DMF     H1 3723   0.085   2.718   1.182 -1.0739  0.3686  0.1728
  270DMF     H2 3724   0.002   2.748   1.033 -1.0598 -0.1153  1.8576
  270DMF     H3 3725   0.171   2.694   1.032 -0.4220  0.8457  0.7904
  270DMF     H4 3726   0.059   2.342   1.138 -0.7620  0.3817 -2.4544
  270DMF     H5 3727   0.087   2.470   1.259 -1.5872 -2.0391 -0.1630
  270DMF     H6 3728   0.211   2.432   1.127 -0.9745 -0.9166 -2.2913
  270DMF     H7 3729  -0.086   2.393   0.994  1.0776  0.1816  2.4516
  271DMF     C1 3730   3.029   2.180   0.717 -0.0776  0.0509  0.2438
  271DMF     N1 3731   3.160   2.113   0.727  0.3707 -0.7105  1.0108
  271DMF     C2 3732   3.240   2.114   0.850  0.1016 -0.3575  0.6793
  271DMF     C3 3733   3.224   2.069   0.615  0.3381  0.9955  0.2248
  271DMF     O1 3734   3.172   2.073   0.505 -0.0628 -0.0950  0.7079
  271DMF     H1 3735   3.015   2.268   0.781  0.7749 -0.3880  1.0369
  271DMF     H2 3736   2.945   2.109   0.716 -1.0706  1.1952 -2.2132
  271DMF     H3 3737   3.021   2.226   0.618 -0.9293  0.5589  0.5476
  271DMF     H4 3738   3.333   2.170   0.832 -1.5052  1.6803 -1.8083
  271DMF     H5 3739   3.279   2.014   0.871  1.2702  0.0264  0.3509
  271DMF     H6 3740   3.184   2.156   0.934  0.4098  3.4764 -0.9043
  271DMF     H7 3741   3.328   2.035   0.631  0.0713  0.8594  1.7997
  272DMF     C1 3742   0.371   1.713   2.937 -0.7849 -0.0863  0.4200
  272DMF     N1 3743   0.481   1.681   2.841 -0.5784 -0.1576  0.9782
  272DMF     C2 3744   0.432   1.622   2.719 -0.2003  0.1734  0.0478
  272DMF     C3 3745   0.620   1.708   2.865  1.0210 -0.9958 -0.1969
  272DMF     O1 3746   0.662   1.743   2.972  0.3467  0.0965 -0.8366
  272DMF     H1 3747   0.389   1.642   3.019  0.7836 -1.4325 -1.0575
  272DMF     H2 3748   0.270   1.699   2.895 -0.4516  0.9165 -0.7292
  272DMF     H3 3749   0.364   1.813   2.982  1.1092  0.6590 -0.8822
  272DMF     H4 3750   0.374   1.700   2.666 -1.4029  1.3914  3.0557
  272DMF     H5 3751   0.366   1.536   2.729 -0.0404 -0.1787 -1.6525
  272DMF     H6 3752   0.506   1.592   2.644 -0.5502  1.2273 -0.7439
  272DMF     H7 3753   0.677   1.694   2.772 -0.3233 -0.7663 -1.0818
  273DMF     C1 3754   3.054   2.608   2.257  0.9031 -0.4574  0.1339
  273DMF     N1 3755   3.156   2.710   2.270 -0.0958 -0.4322 -0.5897
  273DMF     C2 3756   3.296   2.663   2.270  0.1832 -0.4327 -0.3787
  273DMF     C3 3757   3.122   2.848   2.262 -0.2103  0.0513 -0.0896
  273DMF     O1 3758   3.005   2.877   2.252 -0.3171  0.3065  0.3898
  273DMF     H1 3759   3.002   2.635   2.164 -0.5241  1.8413  1.5502
  273DMF     H2 3760   2.988   2.625   2.343  1.1992  0.7111  0.1405
  273DMF     H3 3761   3.096   2.507   2.263 -0.4100 -1.0563 -0.7151
  273DMF     H4 3762   3.331   2.643   2.168  0.4626  0.1439 -0.3968
  273DMF     H5 3763   3.314   2.577   2.336  0.5249  1.7955  2.5592
  273DMF     H6 3764   3.359   2.742   2.313 -0.3101  0.0994 -0.6272
  273DMF     H7 3765   3.208   2.917   2.269  0.0968 -0.4598  1.4209
  274DMF     C1 3766   2.003   2.440   0.587  0.4573 -0.0156 -0.0063
  274DMF     N1 3767   2.015   2.586   0.610 -0.4619  0.0217  0.0489
  274DMF     C2 3768   2.146   2.657   0.589  0.0821 -0.5399 -0.1486
  274DMF     C3 3769   1.905   2.657   0.664 -0.8315  0.2988 -0.3503
  274DMF     O1 3770   1.796   2.605   0.668  0.3144 -0.1465  0.2943
  274DMF     H1 3771   2.047   2.388   0.673  1.6875  0.2103 -0.4835
  274DMF     H2 3772   2.065   2.412   0.500  1.1914  0.2102  0.4354
  274DMF     H3 3773   1.900   2.404   0.586  0.1200  0.8263  2.2049
  274DMF     H4 3774   2.230   2.609   0.640  0.9995  1.5553  0.3480
  274DMF     H5 3775   2.147   2.760   0.627  0.7258 -0.1960 -1.0762
  274DMF     H6 3776   2.179   2.651   0.485  2.7676  0.3190  0.6134
  274DMF     H7 3777   1.932   2.760   0.690  0.8699  0.2790 -1.9719
  275DMF     C1 3778   2.155   2.399   0.018  0.8930 -0.5228  0.2593
  275DMF     N1 3779   2.282   2.426   0.087  0.1629  0.5576 -0.0121
  275DMF     C2 3780   2.279   2.458   0.230  0.4107  0.8985  0.1273
  275DMF     C3 3781   2.403   2.377   0.024  0.3033  0.4846 -0.8127
  275DMF     O1 3782   2.406   2.318  -0.084 -0.2497 -0.2819 -0.4186
  275DMF     H1 3783   2.141   2.483  -0.052  1.4168  0.1858  1.0069
  275DMF     H2 3784   2.070   2.402   0.087  0.0551  0.5498 -0.7829
  275DMF     H3 3785   2.142   2.303  -0.034 -0.5973  0.9558 -2.2113
  275DMF     H4 3786   2.356   2.411   0.292 -0.3364 -1.7699 -0.9419
  275DMF     H5 3787   2.179   2.432   0.268  0.4990  2.8001  1.7750
  275DMF     H6 3788   2.283   2.567   0.242  2.1822  0.7851  0.7986
  275DMF     H7 3789   2.490   2.401   0.089  0.1627 -0.6678 -0.1884
  276DMF     C1 3790   2.918   3.302   1.553 -0.2085  0.3083  0.3237
  276DMF     N1 3791   3.047   3.376   1.534 -0.1574 -0.1712  0.8474
  276DMF     C2 3792   3.036   3.523   1.525  0.3259 -0.2447  0.8024
  276DMF     C3 3793   3.161   3.310   1.497  0.4020  0.1296  0.5961
  276DMF     O1 3794   3.157   3.189   1.482 -0.0667 -0.1438 -0.0233
  276DMF     H1 3795   2.831   3.357   1.591 -1.0335  1.1119 -2.6156
  276DMF     H2 3796   2.941   3.225   1.628  2.0861  1.1766  0.5312
  276DMF     H3 3797   2.889   3.259   1.456 -2.7523  1.3117  0.5975
  276DMF     H4 3798   3.135   3.567   1.503 -0.8057  0.8882 -2.3675
  276DMF     H5 3799   3.005   3.559   1.623 -0.6144  0.5998  0.1974
  276DMF     H6 3800   2.960   3.554   1.452  0.2558 -1.3145  0.4146
  276DMF     H7 3801   3.244   3.382   1.479  2.8359 -2.4736  1.0324
  277DMF     C1 3802   2.569   0.557   0.772 -0.3294 -0.9570 -0.5287
  277DMF     N1 3803   2.652   0.537   0.647  0.1721  0.3198 -0.5333
  277DMF     C2 3804   2.701   0.660   0.571 -0.4147 -0.1924 -0.0832
  277DMF     C3 3805   2.667   0.411   0.595 -0.4464  0.4888 -0.3157
  277DMF     O1 3806   2.637   0.314   0.660 -0.6579 -0.6474  0.2697
  277DMF     H1 3807   2.462   0.546   0.751 -0.8245  0.1276  1.3023
  277DMF     H2 3808   2.597   0.657   0.808 -0.6019 -0.5725 -1.3760
  277DMF     H3 3809   2.607   0.483   0.844 -0.5084  0.0340  0.5841
  277DMF     H4 3810   2.809   0.653   0.555 -0.1608  3.3743 -0.1762
  277DMF     H5 3811   2.667   0.754   0.616  0.1705  0.9225 -1.9427
  277DMF     H6 3812   2.659   0.667   0.470  2.6314 -3.5975 -1.7174
  277DMF     H7 3813   2.704   0.414   0.491 -0.2494 -1.8345 -0.3348
  278DMF     C1 3814   0.617   3.217   2.734 -0.2278  0.4593 -0.0100
  278DMF     N1 3815   0.562   3.328   2.819 -0.0717  0.1826 -0.2620
  278DMF     C2 3816   0.611   3.471   2.793 -0.2348  0.0528  0.1972
  278DMF     C3 3817   0.494   3.306   2.942 -0.1872  0.4436 -0.5227
  278DMF     O1 3818   0.459   3.192   2.965  0.1612 -0.3172 -0.3282
  278DMF     H1 3819   0.542   3.144   2.701  0.0078  0.5126 -0.6802
  278DMF     H2 3820   0.694   3.157   2.784 -0.3601  0.5293  0.2742
  278DMF     H3 3821   0.667   3.256   2.644 -1.5207  0.1242 -0.8786
  278DMF     H4 3822   0.540   3.538   2.842  0.5470  0.3740  0.8956
  278DMF     H5 3823   0.600   3.495   2.686 -1.0486 -0.0410  0.2568
  278DMF     H6 3824   0.714   3.490   2.824 -0.1998  1.6725 -0.8679
  278DMF     H7 3825   0.479   3.393   3.009  1.0862 -0.1154  0.5200
  279DMF     C1 3826   3.380   0.874   2.880  0.3738  0.2727 -0.0934
  279DMF     N1 3827   3.265   0.943   2.939 -0.0938 -0.8026  0.3536
  279DMF     C2 3828   3.277   1.035   3.050  0.3378  0.1931 -0.2911
  279DMF     C3 3829   3.138   0.918   2.881  1.1222  0.1629 -0.0801
  279DMF     O1 3830   3.129   0.840   2.788 -0.4971 -0.5320  0.1884
  279DMF     H1 3831   3.361   0.766   2.889 -0.4284  0.4070 -0.1574
  279DMF     H2 3832   3.468   0.893   2.943  0.3922  0.1316 -0.0754
  279DMF     H3 3833   3.394   0.898   2.774 -1.1864 -0.4679 -0.4704
  279DMF     H4 3834   3.246   1.138   3.031  3.1434  1.2846  0.7180
  279DMF     H5 3835   3.381   1.037   3.086  1.2044  2.0122 -2.7777
  279DMF     H6 3836   3.223   0.993   3.136 -2.5965  3.2846 -0.5294
  279DMF     H7 3837   3.057   0.968   2.937  0.2201  0.8867 -2.0250
  280DMF     C1 3838   3.356   1.177   3.337  0.1623  0.1152 -0.0219
  280DMF     N1 3839   3.346   1.056   3.414 -0.5531  0.0423  0.1260
  280DMF     C2 3840   3.447   0.948   3.397 -0.0180 -0.5198  0.0105
  280DMF     C3 3841   3.235   1.029   3.488  0.9293  0.6639  0.1568
  280DMF     O1 3842   3.163   1.116   3.527  0.6903  0.0759  0.1159
  280DMF     H1 3843   3.275   1.214   3.274  1.4013  0.9298 -1.1789
  280DMF     H2 3844   3.447   1.175   3.274  0.6617 -1.3444  0.7304
  280DMF     H3 3845   3.389   1.258   3.403  1.4814  0.4260 -1.0243
  280DMF     H4 3846   3.549   0.988   3.390  0.0339 -0.9236 -1.8132
  280DMF     H5 3847   3.421   0.888   3.309 -0.0314 -0.6973  0.1374
  280DMF     H6 3848   3.442   0.877   3.480  2.0391 -1.0573 -0.3005
  280DMF     H7 3849   3.220   0.922   3.510  1.4524  0.2712 -1.3485
  281DMF     C1 3850   0.068   1.642   2.633 -0.4645  0.3178 -0.2386
  281DMF     N1 3851   0.052   1.785   2.604 -0.0409  0.1699  0.4232
  281DMF     C2 3852   0.046   1.877   2.721 -0.7003  0.2688  0.4803
  281DMF     C3 3853   0.036   1.840   2.477  0.2973 -0.5919 -0.0510
  281DMF     O1 3854   0.052   1.769   2.377  0.2388  0.2157  0.0636
  281DMF     H1 3855   0.177   1.629   2.627 -0.1015  2.8487  0.1563
  281DMF     H2 3856   0.019   1.581   2.556  2.5274 -2.6019  0.0599
  281DMF     H3 3857   0.044   1.601   2.731  1.4251 -1.4477 -0.4839
  281DMF     H4 3858  -0.004   1.836   2.810 -0.4928  0.3743  0.6457
  281DMF     H5 3859   0.001   1.974   2.699  0.7009  0.6188 -0.8675
  281DMF     H6 3860   0.145   1.888   2.767 -0.7147  1.5941  0.2000
  281DMF     H7 3861   0.030   1.950   2.470 -0.5217 -0.6252  0.0513
  282DMF     C1 3862   2.799   1.809   1.135 -0.1179 -0.3081  0.6161
  282DMF     N1 3863   2.784   1.670   1.177 -0.1029  0.3046 -0.2279
  282DMF     C2 3864   2.649   1.635   1.227  0.4914 -0.1512 -0.2255
  282DMF     C3 3865   2.887   1.573   1.186 -0.6792  0.2021 -0.3282
  282DMF     O1 3866   3.006   1.600   1.173  0.1301 -0.3859 -0.6647
  282DMF     H1 3867   2.879   1.807   1.060 -0.9344  1.2870 -0.3017
  282DMF     H2 3868   2.828   1.880   1.214 -0.2846  0.4745 -0.0174
  282DMF     H3 3869   2.707   1.841   1.086 -0.5553 -0.2046  1.5007
  282DMF     H4 3870   2.649   1.528   1.249 -1.4258 -0.3716 -1.1433
  282DMF     H5 3871   2.576   1.650   1.146 -1.1618  0.8239  1.4097
  282DMF     H6 3872   2.625   1.693   1.317  1.6218 -0.1267  0.0594
  282DMF     H7 3873   2.853   1.475   1.223  0.7386 -0.3365 -0.4281
  283DMF     C1 3874   0.757   0.549   1.576 -0.1073 -0.5952  0.0731
  283DMF     N1 3875   0.810   0.677   1.519  0.0427  0.8208  0.0273
  283DMF     C2 3876   0.937   0.677   1.442 -0.3430 -0.3563  0.4601
  283DMF     C3 3877   0.727   0.797   1.517  0.5824  0.0796 -0.2077
  283DMF     O1 3878   0.614   0.795   1.557 -0.3883 -0.4422  0.1644
  283DMF     H1 3879   0.764   0.474   1.497 -1.1458  0.3567 -0.9471
  283DMF     H2 3880   0.656   0.558   1.619 -0.0227  1.7957 -0.1479
  283DMF     H3 3881   0.823   0.507   1.653  0.2249  0.9598  0.6692
  283DMF     H4 3882   0.926   0.627   1.345 -0.4968 -1.2459  0.9285
  283DMF     H5 3883   1.009   0.614   1.496 -1.2368  0.0597  2.1921
  283DMF     H6 3884   0.960   0.783   1.428 -1.1806 -0.3799 -1.2656
  283DMF     H7 3885   0.784   0.881   1.474 -0.4408  0.3088 -1.1498
  284DMF     C1 3886   2.404   2.992   2.977 -0.4149  0.2670 -0.4339
  284DMF     N1 3887   2.343   2.859   2.980  0.5137  0.4969 -0.0705
  284DMF     C2 3888   2.201   2.840   2.971  0.6773 -0.0009  0.2684
  284DMF     C3 3889   2.418   2.745   3.010  0.2818 -0.2258 -0.8709
  284DMF     O1 3890   2.543   2.751   3.006  0.4197  0.8480  0.0878
  284DMF     H1 3891   2.398   3.039   3.076 -0.6864  1.4543 -1.0016
  284DMF     H2 3892   2.353   3.058   2.906 -0.0371  0.4334 -0.5518
  284DMF     H3 3893   2.511   2.991   2.952 -0.5895  0.5984 -1.2234
  284DMF     H4 3894   2.186   2.761   2.896 -0.4583 -0.1708  0.6590
  284DMF     H5 3895   2.147   2.928   2.936  1.1543  0.9643  1.9326
  284DMF     H6 3896   2.161   2.807   3.068  1.0963 -0.4385  0.2970
  284DMF     H7 3897   2.352   2.657   3.026 -2.4228  1.8554 -0.2849
  285DMF     C1 3898   2.898   2.888   1.141  0.4501 -0.6194 -0.3714
  285DMF     N1 3899   2.806   2.908   1.252  0.3034  0.2246 -0.7946
  285DMF     C2 3900   2.864   2.959   1.381  0.5335  0.1180 -0.0364
  285DMF     C3 3901   2.674   2.867   1.240  0.2029 -0.2794  0.7718
  285DMF     O1 3902   2.632   2.817   1.134 -0.2682 -0.4612  0.4851
  285DMF     H1 3903   2.933   2.784   1.146  1.1173 -0.3490  0.5916
  285DMF     H2 3904   2.975   2.966   1.148 -2.3377  2.1135  0.6994
  285DMF     H3 3905   2.854   2.916   1.044 -0.8035  2.1813  0.9420
  285DMF     H4 3906   2.905   2.880   1.445  1.8294  0.5304 -0.3568
  285DMF     H5 3907   2.789   3.012   1.442  1.3011  1.0012  0.1441
  285DMF     H6 3908   2.935   3.040   1.361 -0.7761  0.6696 -2.6937
  285DMF     H7 3909   2.609   2.879   1.328 -1.8611 -1.9751 -0.4566
  286DMF     C1 3910   1.733   2.851   0.262 -0.4070 -0.7854 -0.0597
  286DMF     N1 3911   1.747   2.699   0.277 -0.1556  0.2825 -0.5271
  286DMF     C2 3912   1.621   2.619   0.305 -0.4406  0.6884  0.5123
  286DMF     C3 3913   1.871   2.635   0.262 -0.0680 -0.3588  0.0151
  286DMF     O1 3914   1.978   2.691   0.251 -0.4099 -0.6743 -0.2767
  286DMF     H1 3915   1.733   2.883   0.157  1.8825  2.5178  0.8409
  286DMF     H2 3916   1.817   2.893   0.319 -0.7374 -0.3047  0.0754
  286DMF     H3 3917   1.637   2.888   0.300 -0.0579  1.0687 -0.9262
  286DMF     H4 3918   1.541   2.694   0.296 -0.7864  0.1601 -0.9874
  286DMF     H5 3919   1.630   2.588   0.410 -2.2681 -0.0100  0.4715
  286DMF     H6 3920   1.599   2.534   0.240 -2.8789 -0.9916  3.3762
  286DMF     H7 3921   1.859   2.525   0.260 -0.1743 -0.4071  2.4410
  287DMF     C1 3922   1.511   2.034   2.270  0.3947 -0.1232  1.1559
  287DMF     N1 3923   1.522   1.887   2.252 -0.1922  0.3079 -0.1249
  287DMF     C2 3924   1.390   1.820   2.248  0.4644 -0.0178 -0.2447
  287DMF     C3 3925   1.639   1.826   2.222 -0.1732  0.3617  0.2041
  287DMF     O1 3926   1.745   1.883   2.217  0.1612 -0.3883 -0.0447
  287DMF     H1 3927   1.406   2.060   2.286  0.4458  1.3159 -0.6975
  287DMF     H2 3928   1.545   2.082   2.177 -0.2082  2.2426  2.1470
  287DMF     H3 3929   1.575   2.062   2.354  2.4959 -0.7465 -0.1836
  287DMF     H4 3930   1.396   1.712   2.228  2.2502 -0.2845  1.6080
  287DMF     H5 3931   1.321   1.868   2.177 -1.6223 -1.6569  0.5938
  287DMF     H6 3932   1.347   1.826   2.349 -1.0366  0.4498 -0.8875
  287DMF     H7 3933   1.623   1.719   2.202 -1.9398  0.6466  0.0076
  288DMF     C1 3934   1.403   3.280   3.241  0.3468 -0.0128 -0.0290
  288DMF     N1 3935   1.349   3.313   3.103 -0.0083 -0.0521 -0.3737
  288DMF     C2 3936   1.415   3.240   2.992 -0.3553 -0.0782 -0.2557
  288DMF     C3 3937   1.244   3.404   3.076 -0.2909  0.5605 -0.0733
  288DMF     O1 3938   1.191   3.471   3.165 -0.0843  0.2981  0.0379
  288DMF     H1 3939   1.457   3.358   3.296 -1.0869  1.3943 -0.5705
  288DMF     H2 3940   1.482   3.205   3.229  0.0699 -0.6494  2.0211
  288DMF     H3 3941   1.333   3.232   3.310 -0.9099  1.3583 -0.3057
  288DMF     H4 3942   1.361   3.258   2.898 -0.6133  0.0674 -0.0765
  288DMF     H5 3943   1.416   3.132   3.013  4.1159  0.5218  3.6118
  288DMF     H6 3944   1.516   3.284   2.994 -1.7423  3.1524  0.8428
  288DMF     H7 3945   1.211   3.405   2.971 -0.2772 -1.3763 -0.1205
  289DMF     C1 3946   3.375   3.376   2.282 -0.4900  0.0033 -0.7354
  289DMF     N1 3947   3.511   3.299   2.261  0.4793 -0.0095 -0.0464
  289DMF     C2 3948   3.631   3.383   2.255  0.3060  0.4150  0.2598
  289DMF     C3 3949   3.516   3.163   2.277  0.3853 -0.6288 -0.3014
  289DMF     O1 3950   3.412   3.098   2.274 -0.1379 -0.0263  0.3698
  289DMF     H1 3951   3.313   3.322   2.354 -0.4801  0.3593 -0.4554
  289DMF     H2 3952   3.310   3.389   2.194 -2.0915 -0.5810  0.3466
  289DMF     H3 3953   3.397   3.470   2.334 -0.3779  0.2431 -1.2132
  289DMF     H4 3954   3.696   3.362   2.169  0.2756  0.6323  0.1846
  289DMF     H5 3955   3.690   3.357   2.344 -0.8662  1.5914  1.4148
  289DMF     H6 3956   3.599   3.488   2.252  0.6630  0.4831 -1.1551
  289DMF     H7 3957   3.620   3.125   2.284  1.1421  1.6757  2.2491
  290DMF     C1 3958   2.366   0.266   0.066  0.1585 -0.3424  0.6322
  290DMF     N1 3959   2.440   0.252  -0.062  0.3174 -1.0558 -1.0116
  290DMF     C2 3960   2.366   0.248  -0.192  0.5798  0.5246 -0.5252
  290DMF     C3 3961   2.575   0.248  -0.066  0.3488 -0.2898 -0.3497
  290DMF     O1 3962   2.652   0.253   0.033  0.1126  0.6301 -0.3125
  290DMF     H1 3963   2.277   0.203   0.067 -0.6622  0.7799 -0.5385
  290DMF     H2 3964   2.325   0.367   0.067 -2.0786 -1.2020 -0.3298
  290DMF     H3 3965   2.431   0.238   0.150 -1.4779 -2.9514  1.0947
  290DMF     H4 3966   2.261   0.231  -0.164  0.7689  1.0777  0.5575
  290DMF     H5 3967   2.402   0.178  -0.268  1.0487  1.0182 -0.7595
  290DMF     H6 3968   2.369   0.346  -0.241  1.5335 -0.0782 -1.6944
  290DMF     H7 3969   2.608   0.226  -0.169 -0.6474 -1.6663 -0.3804
  291DMF     C1 3970   0.429   2.607   3.088 -0.0970 -0.6662 -0.6824
  291DMF     N1 3971   0.473   2.747   3.049  0.7912  0.3470 -0.1453
  291DMF     C2 3972   0.609   2.804   3.096 -0.0184  0.3087  0.0686
  291DMF     C3 3973   0.402   2.831   2.954  1.0552 -0.6739 -0.3760
  291DMF     O1 3974   0.292   2.801   2.912  0.4288  0.2354 -0.2067
  291DMF     H1 3975   0.451   2.591   3.194  0.7663 -0.2629 -0.7936
  291DMF     H2 3976   0.497   2.534   3.042 -0.5358 -2.6106  1.6529
  291DMF     H3 3977   0.325   2.584   3.063  0.8297 -4.2981 -1.4521
  291DMF     H4 3978   0.612   2.836   3.201  2.2249  0.3091  0.0153
  291DMF     H5 3979   0.627   2.898   3.043 -1.8650 -1.6180 -4.2609
  291DMF     H6 3980   0.693   2.735   3.088  1.5227  1.8449  2.4833
  291DMF     H7 3981   0.449   2.928   2.933  3.4060 -1.4504  1.1049
  292DMF     C1 3982   2.631   1.134   2.419 -0.0668 -0.1727  0.0181
  292DMF     N1 3983   2.685   1.046   2.317  0.0105 -0.1841  0.1071
  292DMF     C2 3984   2.834   1.025   2.304 -0.0067  0.6787  1.2247
  292DMF     C3 3985   2.598   0.959   2.248  0.1523 -0.1679  0.2342
  292DMF     O1 3986   2.477   0.954   2.260 -0.2042 -0.2132 -0.2696
  292DMF     H1 3987   2.685   1.229   2.412 -0.0211 -0.2132 -0.1768
  292DMF     H2 3988   2.652   1.088   2.516  0.3627 -0.2248 -0.1010
  292DMF     H3 3989   2.521   1.136   2.416 -0.0554  0.9399  0.1212
  292DMF     H4 3990   2.887   1.061   2.392  1.5420  1.3025  0.0612
  292DMF     H5 3991   2.866   1.066   2.207 -2.2548 -1.5569 -0.5361
  292DMF     H6 3992   2.867   0.921   2.301  3.5160  1.7461  0.7371
  292DMF     H7 3993   2.655   0.896   2.178  0.9779 -0.9033  1.5453
  293DMF     C1 3994   0.526   3.360   3.476 -0.7842 -0.1607 -0.6862
  293DMF     N1 3995   0.497   3.389   3.616  0.4821 -0.3428  0.7277
  293DMF     C2 3996   0.549   3.288   3.713  0.1655  0.3945  0.2710
  293DMF     C3 3997   0.432   3.506   3.654  0.6133  0.0107 -0.1123
  293DMF     O1 3998   0.396   3.599   3.576 -0.2947  0.3049  0.1587
  293DMF     H1 3999   0.509   3.450   3.416  1.7213 -0.0868 -1.3450
  293DMF     H2 4000   0.457   3.281   3.442 -0.3468 -0.9082  0.1404
  293DMF     H3 4001   0.630   3.328   3.459 -0.9587 -1.4484  0.5880
  293DMF     H4 4002   0.640   3.330   3.759 -0.0508  0.6010  0.5125
  293DMF     H5 4003   0.580   3.197   3.661  3.1068  1.2643  0.4179
  293DMF     H6 4004   0.476   3.275   3.794 -0.7785  0.1568 -0.6050
  293DMF     H7 4005   0.419   3.519   3.763  0.5859  2.6137 -0.3797
  294DMF     C1 4006   2.239   3.126   1.570  0.3505 -0.2599  0.0885
  294DMF     N1 4007   2.346   3.035   1.543 -0.3974  0.4282 -0.7483
  294DMF     C2 4008   2.325   2.892   1.550 -0.3261 -0.6339  0.1527
  294DMF     C3 4009   2.479   3.076   1.516 -0.8134 -0.0675 -0.4171
  294DMF     O1 4010   2.519   3.192   1.526  0.2949 -0.1744 -0.2969
  294DMF     H1 4011   2.158   3.079   1.626 -2.2361  1.7094 -1.8754
  294DMF     H2 4012   2.203   3.164   1.473  1.8660 -1.2151 -0.8763
  294DMF     H3 4013   2.276   3.213   1.626 -1.4038  0.2994  0.4007
  294DMF     H4 4014   2.330   2.866   1.443 -0.6124 -0.9186  0.2080
  294DMF     H5 4015   2.228   2.860   1.589  0.2259 -0.4872  1.6758
  294DMF     H6 4016   2.409   2.846   1.603  0.7602  2.4407  1.2445
  294DMF     H7 4017   2.539   2.992   1.476  0.0633  1.2808 -2.0002
  295DMF     C1 4018   0.051   0.334   2.998  0.6999 -0.0693  0.6193
  295DMF     N1 4019   0.199   0.343   3.002 -0.7396 -0.0081 -0.3274
  295DMF     C2 4020   0.280   0.263   2.897 -0.1813  0.3439 -0.4592
  295DMF     C3 4021   0.270   0.392   3.112  0.2761  0.5145  0.4523
  295DMF     O1 4022   0.219   0.454   3.202  0.1663 -0.4254 -0.8490
  295DMF     H1 4023   0.032   0.238   2.949  1.7341  1.1227 -2.2152
  295DMF     H2 4024   0.013   0.419   2.939  1.2977 -0.8391 -0.9041
  295DMF     H3 4025   0.014   0.338   3.101  0.4337  1.0487  0.4922
  295DMF     H4 4026   0.356   0.329   2.854  1.3445 -0.6901  0.5906
  295DMF     H5 4027   0.223   0.225   2.811  1.1715  0.3319 -1.3685
  295DMF     H6 4028   0.328   0.178   2.948 -1.2593  0.2642  0.4354
  295DMF     H7 4029   0.378   0.368   3.113  0.2549  0.4125  0.2133
  296DMF     C1 4030   2.304   0.748   2.671 -0.2438 -0.3749  0.1460
  296DMF     N1 4031   2.254   0.683   2.796 -0.4744  0.5062  0.2012
  296DMF     C2 4032   2.253   0.771   2.918 -0.5823  0.6085 -0.3543
  296DMF     C3 4033   2.192   0.556   2.791 -0.2298 -0.3393 -0.5371
  296DMF     O1 4034   2.184   0.490   2.691  0.4452  0.5923 -0.4842
  296DMF     H1 4035   2.404   0.705   2.657 -0.3435  0.4926 -3.6110
  296DMF     H2 4036   2.293   0.857   2.679  0.4607 -0.3688  1.1970
  296DMF     H3 4037   2.244   0.715   2.586  0.1605 -1.7769  0.3951
  296DMF     H4 4038   2.329   0.850   2.918  0.2491 -0.1716  0.6387
  296DMF     H5 4039   2.248   0.714   3.012  0.8612  0.3556 -0.4218
  296DMF     H6 4040   2.162   0.829   2.899 -0.8831  0.1869 -0.2058
  296DMF     H7 4041   2.166   0.519   2.892  0.3181 -0.0887 -0.2996
  297DMF     C1 4042   3.219   1.379   0.521 -0.2483 -0.3602  0.0350
  297DMF     N1 4043   3.343   1.386   0.607  0.8916 -0.2886 -0.0587
  297DMF     C2 4044   3.387   1.264   0.684 -0.9261  0.1748  0.1505
  297DMF     C3 4045   3.414   1.507   0.613  0.1312  0.9441 -0.2095
  297DMF     O1 4046   3.390   1.601   0.539 -0.3526  0.0958 -0.6751
  297DMF     H1 4047   3.246   1.405   0.418  0.4137  2.2218  0.8159
  297DMF     H2 4048   3.144   1.452   0.554  0.2905  0.8006 -1.2435
  297DMF     H3 4049   3.174   1.279   0.524 -2.3273  0.5897  2.0231
  297DMF     H4 4050   3.367   1.276   0.791  0.3389 -0.6189  0.4850
  297DMF     H5 4051   3.494   1.254   0.662 -1.2142  1.7953 -2.2816
  297DMF     H6 4052   3.342   1.172   0.644 -1.3369  0.3439  0.2215
  297DMF     H7 4053   3.502   1.499   0.680  0.2767 -1.2288 -0.6126
  298DMF     C1 4054   1.793   2.347   0.875 -0.9253  0.2340 -0.4088
  298DMF     N1 4055   1.823   2.213   0.919 -0.4777 -0.3875  0.3069
  298DMF     C2 4056   1.729   2.106   0.890 -0.2008  0.4263 -0.1407
  298DMF     C3 4057   1.947   2.189   0.993  0.3480  0.0505  0.2801
  298DMF     O1 4058   2.030   2.273   1.026  0.3275  0.3416 -0.0007
  298DMF     H1 4059   1.733   2.406   0.945 -0.1336  0.7036 -0.1259
  298DMF     H2 4060   1.737   2.336   0.781 -3.5404  0.6004  1.0587
  298DMF     H3 4061   1.891   2.389   0.852 -1.3553  0.1405 -2.6297
  298DMF     H4 4062   1.631   2.156   0.883  1.4033  3.7524  0.3793
  298DMF     H5 4063   1.731   2.033   0.972 -0.7452  0.6818  0.1020
  298DMF     H6 4064   1.749   2.064   0.790  0.0959 -0.7875  0.4109
  298DMF     H7 4065   1.951   2.084   1.024 -0.5740 -0.0993 -0.0649
  299DMF     C1 4066   2.369   1.892   1.241 -0.2673  0.2299  0.1045
  299DMF     N1 4067   2.372   2.038   1.215  0.0363 -0.3502 -0.2987
  299DMF     C2 4068   2.250   2.107   1.251  0.2858 -0.4592  0.1269
  299DMF     C3 4069   2.484   2.106   1.188 -0.3815  0.3769 -0.2937
  299DMF     O1 4070   2.590   2.047   1.192  0.2206 -0.2109 -0.2587
  299DMF     H1 4071   2.449   1.864   1.310  1.8204 -1.7395 -2.9798
  299DMF     H2 4072   2.392   1.837   1.149 -0.6347 -1.6087  1.0875
  299DMF     H3 4073   2.272   1.861   1.282  0.2023 -0.8808  0.3803
  299DMF     H4 4074   2.164   2.044   1.221 -1.6112  1.3825  1.5343
  299DMF     H5 4075   2.240   2.178   1.168 -1.5288 -3.1120 -2.0614
  299DMF     H6 4076   2.253   2.149   1.352  0.2397  0.5342 -0.2779
  299DMF     H7 4077   2.460   2.210   1.160  2.4036  1.4153  1.1017
  300DMF     C1 4078   2.457   1.050   3.771 -0.3310  0.0683 -0.6089
  300DMF     N1 4079   2.349   1.136   3.821 -0.3771 -0.5399 -0.5196
  300DMF     C2 4080   2.220   1.077   3.865  0.3425  0.4225  0.1527
  300DMF     C3 4081   2.365   1.277   3.798 -0.2970 -1.0411  0.3326
  300DMF     O1 4082   2.458   1.322   3.737  0.2331  0.1997 -0.5339
  300DMF     H1 4083   2.463   1.069   3.663  0.0494  0.2008 -0.5638
  300DMF     H2 4084   2.425   0.945   3.772 -2.0589  0.5494  3.1001
  300DMF     H3 4085   2.550   1.072   3.824  0.1659  0.3659 -1.6021
  300DMF     H4 4086   2.144   1.105   3.791 -0.3906 -3.4335 -0.6460
  300DMF     H5 4087   2.190   1.118   3.962 -0.3518 -0.5024  0.3360
  300DMF     H6 4088   2.220   0.967   3.869  4.3313  0.2598 -1.4161
  300DMF     H7 4089   2.282   1.340   3.833  1.6776  0.3845  2.5853
  301DMF     C1 4090   2.689   3.258   2.821 -0.0608  0.3260 -0.4419
  301DMF     N1 4091   2.754   3.280   2.951  0.2555  0.1695  0.0453
  301DMF     C2 4092   2.781   3.168   3.041 -0.4352 -0.0992 -0.0304
  301DMF     C3 4093   2.796   3.414   2.981 -0.8187 -0.0841 -0.5064
  301DMF     O1 4094   2.785   3.507   2.908 -0.3460 -0.1453  0.4183
  301DMF     H1 4095   2.686   3.349   2.759  0.9313  0.3167 -0.5101
  301DMF     H2 4096   2.588   3.217   2.832  0.0877 -0.4102 -1.7195
  301DMF     H3 4097   2.742   3.183   2.762  0.5845 -0.1558  0.7392
  301DMF     H4 4098   2.730   3.198   3.134  2.2144 -0.9649  1.7445
  301DMF     H5 4099   2.890   3.171   3.047 -0.2416 -2.0143 -2.1473
  301DMF     H6 4100   2.748   3.075   2.994  1.1151 -1.0965  0.8117
  301DMF     H7 4101   2.852   3.429   3.076  2.3594  0.2309 -2.3506
  302DMF     C1 4102   1.728   0.906   0.982 -0.0253 -0.1128  0.0583
  302DMF     N1 4103   1.745   0.932   1.131  0.4761 -0.3764 -0.1908
  302DMF     C2 4104   1.838   1.036   1.177  0.1953  0.1835  0.1675
  302DMF     C3 4105   1.656   0.877   1.223  0.5003 -0.3336 -0.0234
  302DMF     O1 4106   1.562   0.813   1.182  0.2770  0.5553 -0.1570
  302DMF     H1 4107   1.756   0.802   0.963  1.7954  0.5852 -1.2440
  302DMF     H2 4108   1.783   0.973   0.915  1.4293  0.4288  1.7470
  302DMF     H3 4109   1.622   0.924   0.961 -0.2808 -1.2624  0.3211
  302DMF     H4 4110   1.794   1.091   1.261  0.3591  0.0718  0.3256
  302DMF     H5 4111   1.870   1.103   1.097  2.0505  0.4032  1.0762
  302DMF     H6 4112   1.929   0.990   1.216  0.5675 -0.3685 -1.2987
  302DMF     H7 4113   1.671   0.907   1.328  1.9164  1.1491 -0.6254
  303DMF     C1 4114   1.193   1.975   1.503  0.1379  0.3051  0.2647
  303DMF     N1 4115   1.163   1.871   1.401  0.3245  0.3838  0.4774
  303DMF     C2 4116   1.221   1.898   1.272  0.3548  0.7015 -0.2391
  303DMF     C3 4117   1.065   1.775   1.422 -0.8786 -0.3086 -0.6386
  303DMF     O1 4118   1.020   1.761   1.535 -0.5493  0.3949 -0.5451
  303DMF     H1 4119   1.249   1.929   1.586  0.7104 -0.0537 -0.3117
  303DMF     H2 4120   1.104   2.022   1.546  1.5503  1.2048  2.2792
  303DMF     H3 4121   1.259   2.051   1.460 -0.7364  1.7213  1.4000
  303DMF     H4 4122   1.147   1.852   1.206 -0.5895 -2.9302  3.1600
  303DMF     H5 4123   1.316   1.843   1.269 -1.9409 -3.4519 -0.9581
  303DMF     H6 4124   1.225   2.005   1.247 -0.6211  0.7280 -0.2783
  303DMF     H7 4125   1.025   1.717   1.337 -1.4606 -2.3098  0.9610
  304DMF     C1 4126   0.218   2.850   2.503  0.3652 -0.0340  0.4829
  304DMF     N1 4127   0.369   2.840   2.528 -0.7613  0.4165 -0.4419
  304DMF     C2 4128   0.420   2.718   2.600 -0.1289  0.3733 -0.2061
  304DMF     C3 4129   0.451   2.945   2.502 -0.2191  0.0874  0.7243
  304DMF     O1 4130   0.418   3.051   2.449 -0.1376  0.6089  0.2767
  304DMF     H1 4131   0.176   2.914   2.581 -2.5834 -1.0184 -0.2245
  304DMF     H2 4132   0.175   2.751   2.525 -0.0962  0.2116  0.6832
  304DMF     H3 4133   0.197   2.885   2.401 -0.9276  0.6250  0.9713
  304DMF     H4 4134   0.482   2.753   2.684  0.3519 -2.1572  0.5487
  304DMF     H5 4135   0.481   2.651   2.537  0.1206  0.1723  0.2503
  304DMF     H6 4136   0.341   2.660   2.649 -0.1183  0.2877 -0.2905
  304DMF     H7 4137   0.548   2.918   2.547 -1.0285 -1.3737  1.6101
  305DMF     C1 4138   2.327   2.693   1.173  0.1886  0.0399 -0.4812
  305DMF     N1 4139   2.229   2.586   1.137  0.7726 -0.7787  0.4572
  305DMF     C2 4140   2.107   2.631   1.080 -0.0014  0.4172  0.9330
  305DMF     C3 4141   2.240   2.452   1.186  0.0539 -0.0172 -0.0941
  305DMF     O1 4142   2.345   2.407   1.224  0.2961 -0.3559  0.1780
  305DMF     H1 4143   2.312   2.730   1.276  1.1969  0.9205 -0.6492
  305DMF     H2 4144   2.323   2.775   1.100  4.0181 -0.6909 -1.6037
  305DMF     H3 4145   2.424   2.644   1.163 -0.3970 -1.7905  2.1680
  305DMF     H4 4146   2.090   2.574   0.989 -2.5148  0.6879  1.1951
  305DMF     H5 4147   2.108   2.741   1.072  0.5929  0.3926  0.5798
  305DMF     H6 4148   2.034   2.605   1.157 -1.6084  0.7820 -0.4351
  305DMF     H7 4149   2.144   2.397   1.183  0.3239 -0.3930 -3.6873
  306DMF     C1 4150   0.458   1.416   0.966  0.5051 -0.1057  0.5433
  306DMF     N1 4151   0.486   1.538   0.885 -0.3105  0.4186 -0.5696
  306DMF     C2 4152   0.367   1.595   0.819  0.1469 -0.0011  0.2415
  306DMF     C3 4153   0.616   1.589   0.870  0.0950 -0.5423  0.2294
  306DMF     O1 4154   0.717   1.537   0.912  0.7083  0.3823  0.4195
  306DMF     H1 4155   0.447   1.455   1.068 -0.5952  1.0705 -0.0080
  306DMF     H2 4156   0.542   1.347   0.949  0.9936 -0.4573  4.1038
  306DMF     H3 4157   0.366   1.368   0.930  0.4098 -0.3388  1.0964
  306DMF     H4 4158   0.305   1.515   0.777 -0.2322 -0.9095  2.4571
  306DMF     H5 4159   0.402   1.651   0.733 -0.3006  1.1571  0.8030
  306DMF     H6 4160   0.298   1.654   0.880 -2.8558  0.3984 -3.3625
  306DMF     H7 4161   0.619   1.683   0.812 -2.2757  0.7465  2.1437
  307DMF     C1 4162   1.615   1.153   3.396 -0.1356  0.5198 -0.2720
  307DMF     N1 4163   1.706   1.153   3.514 -0.0657 -1.0395 -0.2276
  307DMF     C2 4164   1.666   1.236   3.634  0.4961 -0.0096  0.6347
  307DMF     C3 4165   1.802   1.058   3.541 -0.0883  0.1515  0.1766
  307DMF     O1 4166   1.840   0.984   3.452  0.6734 -0.0875 -0.5598
  307DMF     H1 4167   1.625   1.052   3.354  2.6267  1.1297 -1.1613
  307DMF     H2 4168   1.646   1.233   3.327  1.5482  1.4742  1.5335
  307DMF     H3 4169   1.514   1.179   3.428 -0.1653  0.9340 -0.6956
  307DMF     H4 4170   1.682   1.170   3.720 -1.7089 -1.2624  0.1192
  307DMF     H5 4171   1.562   1.266   3.619  0.7626  0.8413  0.4719
  307DMF     H6 4172   1.729   1.324   3.649 -1.0301  1.1154  0.5502
  307DMF     H7 4173   1.851   1.060   3.640 -1.1554 -1.4095  0.7447
   3.40320   3.43847   3.80000
