HFIP comparator n4
 3225
    1GR      C1    1   0.000   0.000   1.900  0.0000  0.0000  0.0000
    1GR      C2    2   0.142   0.000   1.900  0.0000  0.0000  0.0000
    1GR      C3    3   0.213   0.123   1.900  0.0000  0.0000  0.0000
    1GR      C4    4   0.354   0.123   1.900  0.0000  0.0000  0.0000
    1GR      C5    5   0.000   0.246   1.900  0.0000  0.0000  0.0000
    1GR      C6    6   0.142   0.246   1.900  0.0000  0.0000  0.0000
    1GR      C7    7   0.213   0.368   1.900  0.0000  0.0000  0.0000
    1GR      C8    8   0.354   0.368   1.900  0.0000  0.0000  0.0000
    1GR      C9    9   0.000   0.491   1.900  0.0000  0.0000  0.0000
    1GR     C10   10   0.142   0.491   1.900  0.0000  0.0000  0.0000
    1GR     C11   11   0.213   0.614   1.900  0.0000  0.0000  0.0000
    1GR     C12   12   0.354   0.614   1.900  0.0000  0.0000  0.0000
    1GR     C13   13   0.000   0.737   1.900  0.0000  0.0000  0.0000
    1GR     C14   14   0.142   0.737   1.900  0.0000  0.0000  0.0000
    1GR     C15   15   0.213   0.860   1.900  0.0000  0.0000  0.0000
    1GR     C16   16   0.354   0.860   1.900  0.0000  0.0000  0.0000
    1GR     C17   17   0.000   0.982   1.900  0.0000  0.0000  0.0000
    1GR     C18   18   0.142   0.982   1.900  0.0000  0.0000  0.0000
    1GR     C19   19   0.213   1.105   1.900  0.0000  0.0000  0.0000
    1GR     C20   20   0.354   1.105   1.900  0.0000  0.0000  0.0000
    1GR     C21   21   0.000   1.228   1.900  0.0000  0.0000  0.0000
    1GR     C22   22   0.142   1.228   1.900  0.0000  0.0000  0.0000
    1GR     C23   23   0.213   1.351   1.900  0.0000  0.0000  0.0000
    1GR     C24   24   0.354   1.351   1.900  0.0000  0.0000  0.0000
    1GR     C25   25   0.000   1.474   1.900  0.0000  0.0000  0.0000
    1GR     C26   26   0.142   1.474   1.900  0.0000  0.0000  0.0000
    1GR     C27   27   0.213   1.596   1.900  0.0000  0.0000  0.0000
    1GR     C28   28   0.354   1.596   1.900  0.0000  0.0000  0.0000
    1GR     C29   29   0.000   1.719   1.900  0.0000  0.0000  0.0000
    1GR     C30   30   0.142   1.719   1.900  0.0000  0.0000  0.0000
    1GR     C31   31   0.213   1.842   1.900  0.0000  0.0000  0.0000
    1GR     C32   32   0.354   1.842   1.900  0.0000  0.0000  0.0000
    1GR     C33   33   0.000   1.965   1.900  0.0000  0.0000  0.0000
    1GR     C34   34   0.142   1.965   1.900  0.0000  0.0000  0.0000
    1GR     C35   35   0.213   2.088   1.900  0.0000  0.0000  0.0000
    1GR     C36   36   0.354   2.088   1.900  0.0000  0.0000  0.0000
    1GR     C37   37   0.000   2.210   1.900  0.0000  0.0000  0.0000
    1GR     C38   38   0.142   2.210   1.900  0.0000  0.0000  0.0000
    1GR     C39   39   0.213   2.333   1.900  0.0000  0.0000  0.0000
    1GR     C40   40   0.354   2.333   1.900  0.0000  0.0000  0.0000
    1GR     C41   41   0.000   2.456   1.900  0.0000  0.0000  0.0000
    1GR     C42   42   0.142   2.456   1.900  0.0000  0.0000  0.0000
    1GR     C43   43   0.213   2.579   1.900  0.0000  0.0000  0.0000
    1GR     C44   44   0.354   2.579   1.900  0.0000  0.0000  0.0000
    1GR     C45   45   0.000   2.702   1.900  0.0000  0.0000  0.0000
    1GR     C46   46   0.142   2.702   1.900  0.0000  0.0000  0.0000
    1GR     C47   47   0.213   2.824   1.900  0.0000  0.0000  0.0000
    1GR     C48   48   0.354   2.824   1.900  0.0000  0.0000  0.0000
    1GR     C49   49   0.000   2.947   1.900  0.0000  0.0000  0.0000
    1GR     C50   50   0.142   2.947   1.900  0.0000  0.0000  0.0000
    1GR     C51   51   0.213   3.070   1.900  0.0000  0.0000  0.0000
    1GR     C52   52   0.354   3.070   1.900  0.0000  0.0000  0.0000
    1GR     C53   53   0.000   3.193   1.900  0.0000  0.0000  0.0000
    1GR     C54   54   0.142   3.193   1.900  0.0000  0.0000  0.0000
    1GR     C55   55   0.213   3.316   1.900  0.0000  0.0000  0.0000
    1GR     C56   56   0.354   3.316   1.900  0.0000  0.0000  0.0000
    1GR     C57   57   0.425   0.000   1.900  0.0000  0.0000  0.0000
    1GR     C58   58   0.567   0.000   1.900  0.0000  0.0000  0.0000
    1GR     C59   59   0.638   0.123   1.900  0.0000  0.0000  0.0000
    1GR     C60   60   0.780   0.123   1.900  0.0000  0.0000  0.0000
    1GR     C61   61   0.425   0.246   1.900  0.0000  0.0000  0.0000
    1GR     C62   62   0.567   0.246   1.900  0.0000  0.0000  0.0000
    1GR     C63   63   0.638   0.368   1.900  0.0000  0.0000  0.0000
    1GR     C64   64   0.780   0.368   1.900  0.0000  0.0000  0.0000
    1GR     C65   65   0.425   0.491   1.900  0.0000  0.0000  0.0000
    1GR     C66   66   0.567   0.491   1.900  0.0000  0.0000  0.0000
    1GR     C67   67   0.638   0.614   1.900  0.0000  0.0000  0.0000
    1GR     C68   68   0.780   0.614   1.900  0.0000  0.0000  0.0000
    1GR     C69   69   0.425   0.737   1.900  0.0000  0.0000  0.0000
    1GR     C70   70   0.567   0.737   1.900  0.0000  0.0000  0.0000
    1GR     C71   71   0.638   0.860   1.900  0.0000  0.0000  0.0000
    1GR     C72   72   0.780   0.860   1.900  0.0000  0.0000  0.0000
    1GR     C73   73   0.425   0.982   1.900  0.0000  0.0000  0.0000
    1GR     C74   74   0.567   0.982   1.900  0.0000  0.0000  0.0000
    1GR     C75   75   0.638   1.105   1.900  0.0000  0.0000  0.0000
    1GR     C76   76   0.780   1.105   1.900  0.0000  0.0000  0.0000
    1GR     C77   77   0.425   1.228   1.900  0.0000  0.0000  0.0000
    1GR     C78   78   0.567   1.228   1.900  0.0000  0.0000  0.0000
    1GR     C79   79   0.638   1.351   1.900  0.0000  0.0000  0.0000
    1GR     C80   80   0.780   1.351   1.900  0.0000  0.0000  0.0000
    1GR     C81   81   0.425   1.474   1.900  0.0000  0.0000  0.0000
    1GR     C82   82   0.567   1.474   1.900  0.0000  0.0000  0.0000
    1GR     C83   83   0.638   1.596   1.900  0.0000  0.0000  0.0000
    1GR     C84   84   0.780   1.596   1.900  0.0000  0.0000  0.0000
    1GR     C85   85   0.425   1.719   1.900  0.0000  0.0000  0.0000
    1GR     C86   86   0.567   1.719   1.900  0.0000  0.0000  0.0000
    1GR     C87   87   0.638   1.842   1.900  0.0000  0.0000  0.0000
    1GR     C88   88   0.780   1.842   1.900  0.0000  0.0000  0.0000
    1GR     C89   89   0.425   1.965   1.900  0.0000  0.0000  0.0000
    1GR     C90   90   0.567   1.965   1.900  0.0000  0.0000  0.0000
    1GR     C91   91   0.638   2.088   1.900  0.0000  0.0000  0.0000
    1GR     C92   92   0.780   2.088   1.900  0.0000  0.0000  0.0000
    1GR     C93   93   0.425   2.210   1.900  0.0000  0.0000  0.0000
    1GR     C94   94   0.567   2.210   1.900  0.0000  0.0000  0.0000
    1GR     C95   95   0.638   2.333   1.900  0.0000  0.0000  0.0000
    1GR     C96   96   0.780   2.333   1.900  0.0000  0.0000  0.0000
    1GR     C97   97   0.425   2.456   1.900  0.0000  0.0000  0.0000
    1GR     C98   98   0.567   2.456   1.900  0.0000  0.0000  0.0000
    1GR     C99   99   0.638   2.579   1.900  0.0000  0.0000  0.0000
    1GR    C100  100   0.780   2.579   1.900  0.0000  0.0000  0.0000
    1GR    C101  101   0.425   2.702   1.900  0.0000  0.0000  0.0000
    1GR    C102  102   0.567   2.702   1.900  0.0000  0.0000  0.0000
    1GR    C103  103   0.638   2.824   1.900  0.0000  0.0000  0.0000
    1GR    C104  104   0.780   2.824   1.900  0.0000  0.0000  0.0000
    1GR    C105  105   0.425   2.947   1.900  0.0000  0.0000  0.0000
    1GR    C106  106   0.567   2.947   1.900  0.0000  0.0000  0.0000
    1GR    C107  107   0.638   3.070   1.900  0.0000  0.0000  0.0000
    1GR    C108  108   0.780   3.070   1.900  0.0000  0.0000  0.0000
    1GR    C109  109   0.425   3.193   1.900  0.0000  0.0000  0.0000
    1GR    C110  110   0.567   3.193   1.900  0.0000  0.0000  0.0000
    1GR    C111  111   0.638   3.316   1.900  0.0000  0.0000  0.0000
    1GR    C112  112   0.780   3.316   1.900  0.0000  0.0000  0.0000
    1GR    C113  113   0.851   0.000   1.900  0.0000  0.0000  0.0000
    1GR    C114  114   0.993   0.000   1.900  0.0000  0.0000  0.0000
    1GR    C115  115   1.064   0.123   1.900  0.0000  0.0000  0.0000
    1GR    C116  116   1.205   0.123   1.900  0.0000  0.0000  0.0000
    1GR    C117  117   0.851   0.246   1.900  0.0000  0.0000  0.0000
    1GR    C118  118   0.993   0.246   1.900  0.0000  0.0000  0.0000
    1GR    C119  119   1.064   0.368   1.900  0.0000  0.0000  0.0000
    1GR    C120  120   1.205   0.368   1.900  0.0000  0.0000  0.0000
    1GR    C121  121   0.851   0.491   1.900  0.0000  0.0000  0.0000
    1GR    C122  122   0.993   0.491   1.900  0.0000  0.0000  0.0000
    1GR    C123  123   1.064   0.614   1.900  0.0000  0.0000  0.0000
    1GR    C124  124   1.205   0.614   1.900  0.0000  0.0000  0.0000
    1GR    C125  125   0.851   0.737   1.900  0.0000  0.0000  0.0000
    1GR    C126  126   0.993   0.737   1.900  0.0000  0.0000  0.0000
    1GR    C127  127   1.064   0.860   1.900  0.0000  0.0000  0.0000
    1GR    C128  128   1.205   0.860   1.900  0.0000  0.0000  0.0000
    1GR    C129  129   0.851   0.982   1.900  0.0000  0.0000  0.0000
    1GR    C130  130   0.993   0.982   1.900  0.0000  0.0000  0.0000
    1GR    C131  131   1.064   1.105   1.900  0.0000  0.0000  0.0000
    1GR    C132  132   1.205   1.105   1.900  0.0000  0.0000  0.0000
    1GR    C133  133   0.851   1.228   1.900  0.0000  0.0000  0.0000
    1GR    C134  134   0.993   1.228   1.900  0.0000  0.0000  0.0000
    1GR    C135  135   1.064   1.351   1.900  0.0000  0.0000  0.0000
    1GR    C136  136   1.205   1.351   1.900  0.0000  0.0000  0.0000
    1GR    C137  137   0.851   1.474   1.900  0.0000  0.0000  0.0000
    1GR    C138  138   0.993   1.474   1.900  0.0000  0.0000  0.0000
    1GR    C139  139   1.064   1.596   1.900  0.0000  0.0000  0.0000
    1GR    C140  140   1.205   1.596   1.900  0.0000  0.0000  0.0000
    1GR    C141  141   0.851   1.719   1.900  0.0000  0.0000  0.0000
    1GR    C142  142   0.993   1.719   1.900  0.0000  0.0000  0.0000
    1GR    C143  143   1.064   1.842   1.900  0.0000  0.0000  0.0000
    1GR    C144  144   1.205   1.842   1.900  0.0000  0.0000  0.0000
    1GR    C145  145   0.851   1.965   1.900  0.0000  0.0000  0.0000
    1GR    C146  146   0.993   1.965   1.900  0.0000  0.0000  0.0000
    1GR    C147  147   1.064   2.088   1.900  0.0000  0.0000  0.0000
    1GR    C148  148   1.205   2.088   1.900  0.0000  0.0000  0.0000
    1GR    C149  149   0.851   2.210   1.900  0.0000  0.0000  0.0000
    1GR    C150  150   0.993   2.210   1.900  0.0000  0.0000  0.0000
    1GR    C151  151   1.064   2.333   1.900  0.0000  0.0000  0.0000
    1GR    C152  152   1.205   2.333   1.900  0.0000  0.0000  0.0000
    1GR    C153  153   0.851   2.456   1.900  0.0000  0.0000  0.0000
    1GR    C154  154   0.993   2.456   1.900  0.0000  0.0000  0.0000
    1GR    C155  155   1.064   2.579   1.900  0.0000  0.0000  0.0000
    1GR    C156  156   1.205   2.579   1.900  0.0000  0.0000  0.0000
    1GR    C157  157   0.851   2.702   1.900  0.0000  0.0000  0.0000
    1GR    C158  158   0.993   2.702   1.900  0.0000  0.0000  0.0000
    1GR    C159  159   1.064   2.824   1.900  0.0000  0.0000  0.0000
    1GR    C160  160   1.205   2.824   1.900  0.0000  0.0000  0.0000
    1GR    C161  161   0.851   2.947   1.900  0.0000  0.0000  0.0000
    1GR    C162  162   0.993   2.947   1.900  0.0000  0.0000  0.0000
    1GR    C163  163   1.064   3.070   1.900  0.0000  0.0000  0.0000
    1GR    C164  164   1.205   3.070   1.900  0.0000  0.0000  0.0000
    1GR    C165  165   0.851   3.193   1.900  0.0000  0.0000  0.0000
    1GR    C166  166   0.993   3.193   1.900  0.0000  0.0000  0.0000
    1GR    C167  167   1.064   3.316   1.900  0.0000  0.0000  0.0000
    1GR    C168  168   1.205   3.316   1.900  0.0000  0.0000  0.0000
    1GR    C169  169   1.276   0.000   1.900  0.0000  0.0000  0.0000
    1GR    C170  170   1.418   0.000   1.900  0.0000  0.0000  0.0000
    1GR    C171  171   1.489   0.123   1.900  0.0000  0.0000  0.0000
    1GR    C172  172   1.631   0.123   1.900  0.0000  0.0000  0.0000
    1GR    C173  173   1.276   0.246   1.900  0.0000  0.0000  0.0000
    1GR    C174  174   1.418   0.246   1.900  0.0000  0.0000  0.0000
    1GR    C175  175   1.489   0.368   1.900  0.0000  0.0000  0.0000
    1GR    C176  176   1.631   0.368   1.900  0.0000  0.0000  0.0000
    1GR    C177  177   1.276   0.491   1.900  0.0000  0.0000  0.0000
    1GR    C178  178   1.418   0.491   1.900  0.0000  0.0000  0.0000
    1GR    C179  179   1.489   0.614   1.900  0.0000  0.0000  0.0000
    1GR    C180  180   1.631   0.614   1.900  0.0000  0.0000  0.0000
    1GR    C181  181   1.276   0.737   1.900  0.0000  0.0000  0.0000
    1GR    C182  182   1.418   0.737   1.900  0.0000  0.0000  0.0000
    1GR    C183  183   1.489   0.860   1.900  0.0000  0.0000  0.0000
    1GR    C184  184   1.631   0.860   1.900  0.0000  0.0000  0.0000
    1GR    C185  185   1.276   0.982   1.900  0.0000  0.0000  0.0000
    1GR    C186  186   1.418   0.982   1.900  0.0000  0.0000  0.0000
    1GR    C187  187   1.489   1.105   1.900  0.0000  0.0000  0.0000
    1GR    C188  188   1.631   1.105   1.900  0.0000  0.0000  0.0000
    1GR    C189  189   1.276   1.228   1.900  0.0000  0.0000  0.0000
    1GR    C190  190   1.418   1.228   1.900  0.0000  0.0000  0.0000
    1GR    C191  191   1.489   1.351   1.900  0.0000  0.0000  0.0000
    1GR    C192  192   1.631   1.351   1.900  0.0000  0.0000  0.0000
    1GR    C193  193   1.276   1.474   1.900  0.0000  0.0000  0.0000
    1GR    C194  194   1.418   1.474   1.900  0.0000  0.0000  0.0000
    1GR    C195  195   1.489   1.596   1.900  0.0000  0.0000  0.0000
    1GR    C196  196   1.631   1.596   1.900  0.0000  0.0000  0.0000
    1GR    C197  197   1.276   1.719   1.900  0.0000  0.0000  0.0000
    1GR    C198  198   1.418   1.719   1.900  0.0000  0.0000  0.0000
    1GR    C199  199   1.489   1.842   1.900  0.0000  0.0000  0.0000
    1GR    C200  200   1.631   1.842   1.900  0.0000  0.0000  0.0000
    1GR    C201  201   1.276   1.965   1.900  0.0000  0.0000  0.0000
    1GR    C202  202   1.418   1.965   1.900  0.0000  0.0000  0.0000
    1GR    C203  203   1.489   2.088   1.900  0.0000  0.0000  0.0000
    1GR    C204  204   1.631   2.088   1.900  0.0000  0.0000  0.0000
    1GR    C205  205   1.276   2.210   1.900  0.0000  0.0000  0.0000
    1GR    C206  206   1.418   2.210   1.900  0.0000  0.0000  0.0000
    1GR    C207  207   1.489   2.333   1.900  0.0000  0.0000  0.0000
    1GR    C208  208   1.631   2.333   1.900  0.0000  0.0000  0.0000
    1GR    C209  209   1.276   2.456   1.900  0.0000  0.0000  0.0000
    1GR    C210  210   1.418   2.456   1.900  0.0000  0.0000  0.0000
    1GR    C211  211   1.489   2.579   1.900  0.0000  0.0000  0.0000
    1GR    C212  212   1.631   2.579   1.900  0.0000  0.0000  0.0000
    1GR    C213  213   1.276   2.702   1.900  0.0000  0.0000  0.0000
    1GR    C214  214   1.418   2.702   1.900  0.0000  0.0000  0.0000
    1GR    C215  215   1.489   2.824   1.900  0.0000  0.0000  0.0000
    1GR    C216  216   1.631   2.824   1.900  0.0000  0.0000  0.0000
    1GR    C217  217   1.276   2.947   1.900  0.0000  0.0000  0.0000
    1GR    C218  218   1.418   2.947   1.900  0.0000  0.0000  0.0000
    1GR    C219  219   1.489   3.070   1.900  0.0000  0.0000  0.0000
    1GR    C220  220   1.631   3.070   1.900  0.0000  0.0000  0.0000
    1GR    C221  221   1.276   3.193   1.900  0.0000  0.0000  0.0000
    1GR    C222  222   1.418   3.193   1.900  0.0000  0.0000  0.0000
    1GR    C223  223   1.489   3.316   1.900  0.0000  0.0000  0.0000
    1GR    C224  224   1.631   3.316   1.900  0.0000  0.0000  0.0000
    1GR    C225  225   1.702   0.000   1.900  0.0000  0.0000  0.0000
    1GR    C226  226   1.843   0.000   1.900  0.0000  0.0000  0.0000
    1GR    C227  227   1.914   0.123   1.900  0.0000  0.0000  0.0000
    1GR    C228  228   2.056   0.123   1.900  0.0000  0.0000  0.0000
    1GR    C229  229   1.702   0.246   1.900  0.0000  0.0000  0.0000
    1GR    C230  230   1.843   0.246   1.900  0.0000  0.0000  0.0000
    1GR    C231  231   1.914   0.368   1.900  0.0000  0.0000  0.0000
    1GR    C232  232   2.056   0.368   1.900  0.0000  0.0000  0.0000
    1GR    C233  233   1.702   0.491   1.900  0.0000  0.0000  0.0000
    1GR    C234  234   1.843   0.491   1.900  0.0000  0.0000  0.0000
    1GR    C235  235   1.914   0.614   1.900  0.0000  0.0000  0.0000
    1GR    C236  236   2.056   0.614   1.900  0.0000  0.0000  0.0000
    1GR    C237  237   1.702   0.737   1.900  0.0000  0.0000  0.0000
    1GR    C238  238   1.843   0.737   1.900  0.0000  0.0000  0.0000
    1GR    C239  239   1.914   0.860   1.900  0.0000  0.0000  0.0000
    1GR    C240  240   2.056   0.860   1.900  0.0000  0.0000  0.0000
    1GR    C241  241   1.702   0.982   1.900  0.0000  0.0000  0.0000
    1GR    C242  242   1.843   0.982   1.900  0.0000  0.0000  0.0000
    1GR    C243  243   1.914   1.105   1.900  0.0000  0.0000  0.0000
    1GR    C244  244   2.056   1.105   1.900  0.0000  0.0000  0.0000
    1GR    C245  245   1.702   1.228   1.900  0.0000  0.0000  0.0000
    1GR    C246  246   1.843   1.228   1.900  0.0000  0.0000  0.0000
    1GR    C247  247   1.914   1.351   1.900  0.0000  0.0000  0.0000
    1GR    C248  248   2.056   1.351   1.900  0.0000  0.0000  0.0000
    1GR    C249  249   1.702   1.474   1.900  0.0000  0.0000  0.0000
    1GR    C250  250   1.843   1.474   1.900  0.0000  0.0000  0.0000
    1GR    C251  251   1.914   1.596   1.900  0.0000  0.0000  0.0000
    1GR    C252  252   2.056   1.596   1.900  0.0000  0.0000  0.0000
    1GR    C253  253   1.702   1.719   1.900  0.0000  0.0000  0.0000
    1GR    C254  254   1.843   1.719   1.900  0.0000  0.0000  0.0000
    1GR    C255  255   1.914   1.842   1.900  0.0000  0.0000  0.0000
    1GR    C256  256   2.056   1.842   1.900  0.0000  0.0000  0.0000
    1GR    C257  257   1.702   1.965   1.900  0.0000  0.0000  0.0000
    1GR    C258  258   1.843   1.965   1.900  0.0000  0.0000  0.0000
    1GR    C259  259   1.914   2.088   1.900  0.0000  0.0000  0.0000
    1GR    C260  260   2.056   2.088   1.900  0.0000  0.0000  0.0000
    1GR    C261  261   1.702   2.210   1.900  0.0000  0.0000  0.0000
    1GR    C262  262   1.843   2.210   1.900  0.0000  0.0000  0.0000
    1GR    C263  263   1.914   2.333   1.900  0.0000  0.0000  0.0000
    1GR    C264  264   2.056   2.333   1.900  0.0000  0.0000  0.0000
    1GR    C265  265   1.702   2.456   1.900  0.0000  0.0000  0.0000
    1GR    C266  266   1.843   2.456   1.900  0.0000  0.0000  0.0000
    1GR    C267  267   1.914   2.579   1.900  0.0000  0.0000  0.0000
    1GR    C268  268   2.056   2.579   1.900  0.0000  0.0000  0.0000
    1GR    C269  269   1.702   2.702   1.900  0.0000  0.0000  0.0000
    1GR    C270  270   1.843   2.702   1.900  0.0000  0.0000  0.0000
    1GR    C271  271   1.914   2.824   1.900  0.0000  0.0000  0.0000
    1GR    C272  272   2.056   2.824   1.900  0.0000  0.0000  0.0000
    1GR    C273  273   1.702   2.947   1.900  0.0000  0.0000  0.0000
    1GR    C274  274   1.843   2.947   1.900  0.0000  0.0000  0.0000
    1GR    C275  275   1.914   3.070   1.900  0.0000  0.0000  0.0000
    1GR    C276  276   2.056   3.070   1.900  0.0000  0.0000  0.0000
    1GR    C277  277   1.702   3.193   1.900  0.0000  0.0000  0.0000
    1GR    C278  278   1.843   3.193   1.900  0.0000  0.0000  0.0000
    1GR    C279  279   1.914   3.316   1.900  0.0000  0.0000  0.0000
    1GR    C280  280   2.056   3.316   1.900  0.0000  0.0000  0.0000
    1GR    C281  281   2.127   0.000   1.900  0.0000  0.0000  0.0000
    1GR    C282  282   2.269   0.000   1.900  0.0000  0.0000  0.0000
    1GR    C283  283   2.340   0.123   1.900  0.0000  0.0000  0.0000
    1GR    C284  284   2.481   0.123   1.900  0.0000  0.0000  0.0000
    1GR    C285  285   2.127   0.246   1.900  0.0000  0.0000  0.0000
    1GR    C286  286   2.269   0.246   1.900  0.0000  0.0000  0.0000
    1GR    C287  287   2.340   0.368   1.900  0.0000  0.0000  0.0000
    1GR    C288  288   2.481   0.368   1.900  0.0000  0.0000  0.0000
    1GR    C289  289   2.127   0.491   1.900  0.0000  0.0000  0.0000
    1GR    C290  290   2.269   0.491   1.900  0.0000  0.0000  0.0000
    1GR    C291  291   2.340   0.614   1.900  0.0000  0.0000  0.0000
    1GR    C292  292   2.481   0.614   1.900  0.0000  0.0000  0.0000
    1GR    C293  293   2.127   0.737   1.900  0.0000  0.0000  0.0000
    1GR    C294  294   2.269   0.737   1.900  0.0000  0.0000  0.0000
    1GR    C295  295   2.340   0.860   1.900  0.0000  0.0000  0.0000
    1GR    C296  296   2.481   0.860   1.900  0.0000  0.0000  0.0000
    1GR    C297  297   2.127   0.982   1.900  0.0000  0.0000  0.0000
    1GR    C298  298   2.269   0.982   1.900  0.0000  0.0000  0.0000
    1GR    C299  299   2.340   1.105   1.900  0.0000  0.0000  0.0000
    1GR    C300  300   2.481   1.105   1.900  0.0000  0.0000  0.0000
    1GR    C301  301   2.127   1.228   1.900  0.0000  0.0000  0.0000
    1GR    C302  302   2.269   1.228   1.900  0.0000  0.0000  0.0000
    1GR    C303  303   2.340   1.351   1.900  0.0000  0.0000  0.0000
    1GR    C304  304   2.481   1.351   1.900  0.0000  0.0000  0.0000
    1GR    C305  305   2.127   1.474   1.900  0.0000  0.0000  0.0000
    1GR    C306  306   2.269   1.474   1.900  0.0000  0.0000  0.0000
    1GR    C307  307   2.340   1.596   1.900  0.0000  0.0000  0.0000
    1GR    C308  308   2.481   1.596   1.900  0.0000  0.0000  0.0000
    1GR    C309  309   2.127   1.719   1.900  0.0000  0.0000  0.0000
    1GR    C310  310   2.269   1.719   1.900  0.0000  0.0000  0.0000
    1GR    C311  311   2.340   1.842   1.900  0.0000  0.0000  0.0000
    1GR    C312  312   2.481   1.842   1.900  0.0000  0.0000  0.0000
    1GR    C313  313   2.127   1.965   1.900  0.0000  0.0000  0.0000
    1GR    C314  314   2.269   1.965   1.900  0.0000  0.0000  0.0000
    1GR    C315  315   2.340   2.088   1.900  0.0000  0.0000  0.0000
    1GR    C316  316   2.481   2.088   1.900  0.0000  0.0000  0.0000
    1GR    C317  317   2.127   2.210   1.900  0.0000  0.0000  0.0000
    1GR    C318  318   2.269   2.210   1.900  0.0000  0.0000  0.0000
    1GR    C319  319   2.340   2.333   1.900  0.0000  0.0000  0.0000
    1GR    C320  320   2.481   2.333   1.900  0.0000  0.0000  0.0000
    1GR    C321  321   2.127   2.456   1.900  0.0000  0.0000  0.0000
    1GR    C322  322   2.269   2.456   1.900  0.0000  0.0000  0.0000
    1GR    C323  323   2.340   2.579   1.900  0.0000  0.0000  0.0000
    1GR    C324  324   2.481   2.579   1.900  0.0000  0.0000  0.0000
    1GR    C325  325   2.127   2.702   1.900  0.0000  0.0000  0.0000
    1GR    C326  326   2.269   2.702   1.900  0.0000  0.0000  0.0000
    1GR    C327  327   2.340   2.824   1.900  0.0000  0.0000  0.0000
    1GR    C328  328   2.481   2.824   1.900  0.0000  0.0000  0.0000
    1GR    C329  329   2.127   2.947   1.900  0.0000  0.0000  0.0000
    1GR    C330  330   2.269   2.947   1.900  0.0000  0.0000  0.0000
    1GR    C331  331   2.340   3.070   1.900  0.0000  0.0000  0.0000
    1GR    C332  332   2.481   3.070   1.900  0.0000  0.0000  0.0000
    1GR    C333  333   2.127   3.193   1.900  0.0000  0.0000  0.0000
    1GR    C334  334   2.269   3.193   1.900  0.0000  0.0000  0.0000
    1GR    C335  335   2.340   3.316   1.900  0.0000  0.0000  0.0000
    1GR    C336  336   2.481   3.316   1.900  0.0000  0.0000  0.0000
    1GR    C337  337   2.552   0.000   1.900  0.0000  0.0000  0.0000
    1GR    C338  338   2.694   0.000   1.900  0.0000  0.0000  0.0000
    1GR    C339  339   2.765   0.123   1.900  0.0000  0.0000  0.0000
    1GR    C340  340   2.907   0.123   1.900  0.0000  0.0000  0.0000
    1GR    C341  341   2.552   0.246   1.900  0.0000  0.0000  0.0000
    1GR    C342  342   2.694   0.246   1.900  0.0000  0.0000  0.0000
    1GR    C343  343   2.765   0.368   1.900  0.0000  0.0000  0.0000
    1GR    C344  344   2.907   0.368   1.900  0.0000  0.0000  0.0000
    1GR    C345  345   2.552   0.491   1.900  0.0000  0.0000  0.0000
    1GR    C346  346   2.694   0.491   1.900  0.0000  0.0000  0.0000
    1GR    C347  347   2.765   0.614   1.900  0.0000  0.0000  0.0000
    1GR    C348  348   2.907   0.614   1.900  0.0000  0.0000  0.0000
    1GR    C349  349   2.552   0.737   1.900  0.0000  0.0000  0.0000
    1GR    C350  350   2.694   0.737   1.900  0.0000  0.0000  0.0000
    1GR    C351  351   2.765   0.860   1.900  0.0000  0.0000  0.0000
    1GR    C352  352   2.907   0.860   1.900  0.0000  0.0000  0.0000
    1GR    C353  353   2.552   0.982   1.900  0.0000  0.0000  0.0000
    1GR    C354  354   2.694   0.982   1.900  0.0000  0.0000  0.0000
    1GR    C355  355   2.765   1.105   1.900  0.0000  0.0000  0.0000
    1GR    C356  356   2.907   1.105   1.900  0.0000  0.0000  0.0000
    1GR    C357  357   2.552   1.228   1.900  0.0000  0.0000  0.0000
    1GR    C358  358   2.694   1.228   1.900  0.0000  0.0000  0.0000
    1GR    C359  359   2.765   1.351   1.900  0.0000  0.0000  0.0000
    1GR    C360  360   2.907   1.351   1.900  0.0000  0.0000  0.0000
    1GR    C361  361   2.552   1.474   1.900  0.0000  0.0000  0.0000
    1GR    C362  362   2.694   1.474   1.900  0.0000  0.0000  0.0000
    1GR    C363  363   2.765   1.596   1.900  0.0000  0.0000  0.0000
    1GR    C364  364   2.907   1.596   1.900  0.0000  0.0000  0.0000
    1GR    C365  365   2.552   1.719   1.900  0.0000  0.0000  0.0000
    1GR    C366  366   2.694   1.719   1.900  0.0000  0.0000  0.0000
    1GR    C367  367   2.765   1.842   1.900  0.0000  0.0000  0.0000
    1GR    C368  368   2.907   1.842   1.900  0.0000  0.0000  0.0000
    1GR    C369  369   2.552   1.965   1.900  0.0000  0.0000  0.0000
    1GR    C370  370   2.694   1.965   1.900  0.0000  0.0000  0.0000
    1GR    C371  371   2.765   2.088   1.900  0.0000  0.0000  0.0000
    1GR    C372  372   2.907   2.088   1.900  0.0000  0.0000  0.0000
    1GR    C373  373   2.552   2.210   1.900  0.0000  0.0000  0.0000
    1GR    C374  374   2.694   2.210   1.900  0.0000  0.0000  0.0000
    1GR    C375  375   2.765   2.333   1.900  0.0000  0.0000  0.0000
    1GR    C376  376   2.907   2.333   1.900  0.0000  0.0000  0.0000
    1GR    C377  377   2.552   2.456   1.900  0.0000  0.0000  0.0000
    1GR    C378  378   2.694   2.456   1.900  0.0000  0.0000  0.0000
    1GR    C379  379   2.765   2.579   1.900  0.0000  0.0000  0.0000
    1GR    C380  380   2.907   2.579   1.900  0.0000  0.0000  0.0000
    1GR    C381  381   2.552   2.702   1.900  0.0000  0.0000  0.0000
    1GR    C382  382   2.694   2.702   1.900  0.0000  0.0000  0.0000
    1GR    C383  383   2.765   2.824   1.900  0.0000  0.0000  0.0000
    1GR    C384  384   2.907   2.824   1.900  0.0000  0.0000  0.0000
    1GR    C385  385   2.552   2.947   1.900  0.0000  0.0000  0.0000
    1GR    C386  386   2.694   2.947   1.900  0.0000  0.0000  0.0000
    1GR    C387  387   2.765   3.070   1.900  0.0000  0.0000  0.0000
    1GR    C388  388   2.907   3.070   1.900  0.0000  0.0000  0.0000
    1GR    C389  389   2.552   3.193   1.900  0.0000  0.0000  0.0000
    1GR    C390  390   2.694   3.193   1.900  0.0000  0.0000  0.0000
    1GR    C391  391   2.765   3.316   1.900  0.0000  0.0000  0.0000
    1GR    C392  392   2.907   3.316   1.900  0.0000  0.0000  0.0000
    1GR    C393  393   2.978   0.000   1.900  0.0000  0.0000  0.0000
    1GR    C394  394   3.120   0.000   1.900  0.0000  0.0000  0.0000
    1GR    C395  395   3.191   0.123   1.900  0.0000  0.0000  0.0000
    1GR    C396  396   3.332   0.123   1.900  0.0000  0.0000  0.0000
    1GR    C397  397   2.978   0.246   1.900  0.0000  0.0000  0.0000
    1GR    C398  398   3.120   0.246   1.900  0.0000  0.0000  0.0000
    1GR    C399  399   3.191   0.368   1.900  0.0000  0.0000  0.0000
    1GR    C400  400   3.332   0.368   1.900  0.0000  0.0000  0.0000
    1GR    C401  401   2.978   0.491   1.900  0.0000  0.0000  0.0000
    1GR    C402  402   3.120   0.491   1.900  0.0000  0.0000  0.0000
    1GR    C403  403   3.191   0.614   1.900  0.0000  0.0000  0.0000
    1GR    C404  404   3.332   0.614   1.900  0.0000  0.0000  0.0000
    1GR    C405  405   2.978   0.737   1.900  0.0000  0.0000  0.0000
    1GR    C406  406   3.120   0.737   1.900  0.0000  0.0000  0.0000
    1GR    C407  407   3.191   0.860   1.900  0.0000  0.0000  0.0000
    1GR    C408  408   3.332   0.860   1.900  0.0000  0.0000  0.0000
    1GR    C409  409   2.978   0.982   1.900  0.0000  0.0000  0.0000
    1GR    C410  410   3.120   0.982   1.900  0.0000  0.0000  0.0000
    1GR    C411  411   3.191   1.105   1.900  0.0000  0.0000  0.0000
    1GR    C412  412   3.332   1.105   1.900  0.0000  0.0000  0.0000
    1GR    C413  413   2.978   1.228   1.900  0.0000  0.0000  0.0000
    1GR    C414  414   3.120   1.228   1.900  0.0000  0.0000  0.0000
    1GR    C415  415   3.191   1.351   1.900  0.0000  0.0000  0.0000
    1GR    C416  416   3.332   1.351   1.900  0.0000  0.0000  0.0000
    1GR    C417  417   2.978   1.474   1.900  0.0000  0.0000  0.0000
    1GR    C418  418   3.120   1.474   1.900  0.0000  0.0000  0.0000
    1GR    C419  419   3.191   1.596   1.900  0.0000  0.0000  0.0000
    1GR    C420  420   3.332   1.596   1.900  0.0000  0.0000  0.0000
    1GR    C421  421   2.978   1.719   1.900  0.0000  0.0000  0.0000
    1GR    C422  422   3.120   1.719   1.900  0.0000  0.0000  0.0000
    1GR    C423  423   3.191   1.842   1.900  0.0000  0.0000  0.0000
    1GR    C424  424   3.332   1.842   1.900  0.0000  0.0000  0.0000
    1GR    C425  425   2.978   1.965   1.900  0.0000  0.0000  0.0000
    1GR    C426  426   3.120   1.965   1.900  0.0000  0.0000  0.0000
    1GR    C427  427   3.191   2.088   1.900  0.0000  0.0000  0.0000
    1GR    C428  428   3.332   2.088   1.900  0.0000  0.0000  0.0000
    1GR    C429  429   2.978   2.210   1.900  0.0000  0.0000  0.0000
    1GR    C430  430   3.120   2.210   1.900  0.0000  0.0000  0.0000
    1GR    C431  431   3.191   2.333   1.900  0.0000  0.0000  0.0000
    1GR    C432  432   3.332   2.333   1.900  0.0000  0.0000  0.0000
    1GR    C433  433   2.978   2.456   1.900  0.0000  0.0000  0.0000
    1GR    C434  434   3.120   2.456   1.900  0.0000  0.0000  0.0000
    1GR    C435  435   3.191   2.579   1.900  0.0000  0.0000  0.0000
    1GR    C436  436   3.332   2.579   1.900  0.0000  0.0000  0.0000
    1GR    C437  437   2.978   2.702   1.900  0.0000  0.0000  0.0000
    1GR    C438  438   3.120   2.702   1.900  0.0000  0.0000  0.0000
    1GR    C439  439   3.191   2.824   1.900  0.0000  0.0000  0.0000
    1GR    C440  440   3.332   2.824   1.900  0.0000  0.0000  0.0000
    1GR    C441  441   2.978   2.947   1.900  0.0000  0.0000  0.0000
    1GR    C442  442   3.120   2.947   1.900  0.0000  0.0000  0.0000
    1GR    C443  443   3.191   3.070   1.900  0.0000  0.0000  0.0000
    1GR    C444  444   3.332   3.070   1.900  0.0000  0.0000  0.0000
    1GR    C445  445   2.978   3.193   1.900  0.0000  0.0000  0.0000
    1GR    C446  446   3.120   3.193   1.900  0.0000  0.0000  0.0000
    1GR    C447  447   3.191   3.316   1.900  0.0000  0.0000  0.0000
    1GR    C448  448   3.332   3.316   1.900  0.0000  0.0000  0.0000
    2PMMA   CX1  449   2.899   1.864   2.784 -0.2675 -0.2611 -0.4182
    2PMMA   CA2  450   2.806   1.952   2.870  0.2897  0.5810 -0.1167
    2PMMA   CX3  451   2.684   1.859   2.877 -0.1801 -0.5169  0.2362
    2PMMA    C4  452   2.871   1.956   3.012 -0.0761 -0.3923 -0.0299
    2PMMA    O5  453   2.839   1.887   3.108  0.0218 -0.0907 -0.1109
    2PMMA   OS6  454   2.969   2.052   3.031 -0.0395  0.0398  0.1815
    2PMMA   CE7  455   3.024   2.082   3.153  0.1431  0.5569  0.5464
    2PMMA   CX8  456   2.786   2.100   2.818  0.8651  1.1693  0.4841
    2PMMA   CA9  457   2.664   2.186   2.858  0.1627  0.0665  0.0295
    2PMMA  CX10  458   2.527   2.122   2.806 -0.2260  0.0497 -0.5540
    2PMMA   C11  459   2.694   2.313   2.780 -0.1447  0.2135  0.3017
    2PMMA   O12  460   2.625   2.355   2.689  0.7801  0.0937  0.4808
    2PMMA  OS13  461   2.782   2.400   2.846  0.1903  0.3389 -0.1860
    2PMMA  CE14  462   2.819   2.516   2.774  0.1369 -0.4419  0.7795
    2PMMA  CX15  463   2.664   2.199   3.010 -0.0707  0.2717 -0.1450
    2PMMA  CA16  464   2.556   2.283   3.093 -0.0182  0.0909  0.1127
    2PMMA  CX17  465   2.620   2.302   3.227  0.7214 -0.5734  0.2331
    2PMMA   C18  466   2.540   2.423   3.023 -0.7822  0.4587  0.4498
    2PMMA   O19  467   2.595   2.525   3.055 -0.3604  0.0279  0.0296
    2PMMA  OS20  468   2.445   2.413   2.922 -0.1788  0.5591 -0.4304
    2PMMA  CE21  469   2.418   2.535   2.850 -0.2183 -0.3515 -0.3280
    2PMMA  CX22  470   2.427   2.202   3.112 -0.6782  0.3760  0.0750
    2PMMA  CA23  471   2.315   2.231   3.221  0.0826  0.8620  0.4559
    2PMMA  CX24  472   2.274   2.380   3.226 -0.7225 -0.8464  0.2647
    2PMMA   C25  473   2.375   2.178   3.355  0.5110  0.3744  0.3924
    2PMMA   O26  474   2.433   2.076   3.373  0.0681 -0.1022  0.2388
    2PMMA  OS27  475   2.329   2.249   3.465  0.5884 -0.1027  0.3645
    2PMMA  CE28  476   2.360   2.214   3.596  0.0985  0.0788 -0.6342
    2PMMA  CX29  477   2.180   2.156   3.203 -0.6924  0.2902  0.0711
    2PMMA  HC30  478   2.869   1.877   2.679 -1.6627  0.1030  0.0137
    2PMMA  HC31  479   3.001   1.903   2.776 -1.2199  2.6005  0.8836
    2PMMA  HC32  480   2.907   1.756   2.802 -1.5122 -0.3922 -0.5730
    2PMMA  HC33  481   2.634   1.867   2.780  0.0976  0.0841  0.1410
    2PMMA  HC34  482   2.611   1.895   2.951 -0.8667  2.1145 -1.6623
    2PMMA  HC35  483   2.700   1.758   2.917  0.0980 -1.0543 -1.2218
    2PMMA  H136  484   3.059   2.185   3.144  0.9836  0.1661 -0.7939
    2PMMA  H137  485   3.121   2.033   3.171 -0.4296 -0.5180  0.7918
    2PMMA  H138  486   2.958   2.054   3.236  0.4023 -1.7579  0.0184
    2PMMA  HC39  487   2.881   2.153   2.829  0.5257  2.3231 -1.7844
    2PMMA  HC40  488   2.786   2.080   2.710  3.5792 -0.6867  0.7673
    2PMMA  HC41  489   2.446   2.193   2.786 -1.0855 -0.4246  1.1132
    2PMMA  HC42  490   2.550   2.079   2.708  3.1101  3.0163 -1.1934
    2PMMA  HC43  491   2.494   2.036   2.865 -0.7902  0.4449 -0.2965
    2PMMA  H144  492   2.875   2.586   2.838  0.2820  0.6617 -0.5288
    2PMMA  H145  493   2.728   2.568   2.742  1.1259 -0.3546 -1.9441
    2PMMA  H146  494   2.884   2.492   2.690  1.3488  0.6870  1.3665
    2PMMA  HC47  495   2.683   2.106   3.064  1.4055  0.5939 -0.0926
    2PMMA  HC48  496   2.757   2.254   3.025  1.4350 -1.6284 -2.1423
    2PMMA  HC49  497   2.558   2.369   3.287 -0.4593 -1.3200 -0.1392
    2PMMA  HC50  498   2.716   2.355   3.223  1.2451 -1.5582 -0.5686
    2PMMA  HC51  499   2.637   2.213   3.288  0.9268 -0.6181  0.1120
    2PMMA  H152  500   2.374   2.513   2.752  1.0677  0.1163 -1.0130
    2PMMA  H153  501   2.514   2.585   2.840 -0.8282  0.5472 -1.9317
    2PMMA  H154  502   2.352   2.599   2.909  2.0963  0.1061  1.8347
    2PMMA  HC55  503   2.364   2.204   3.022 -0.4414 -0.1018 -0.0989
    2PMMA  HC56  504   2.460   2.099   3.126 -0.3351  0.2270 -1.6641
    2PMMA  HC57  505   2.357   2.452   3.223 -0.4969 -1.1427 -1.2467
    2PMMA  HC58  506   2.219   2.404   3.135 -0.2387  0.9520  0.4248
    2PMMA  HC59  507   2.203   2.394   3.307  0.9015 -0.6884  1.6907
    2PMMA  H160  508   2.259   2.198   3.635 -0.9922  2.1060 -2.5682
    2PMMA  H161  509   2.413   2.302   3.633 -0.8266  1.0833 -1.6683
    2PMMA  H162  510   2.422   2.125   3.610  0.0237  0.0757 -0.3131
    2PMMA  HC63  511   2.117   2.168   3.292  0.8776 -2.9914  1.6923
    2PMMA  HC64  512   2.131   2.188   3.110  0.4033 -0.8181 -0.9116
    2PMMA  HC65  513   2.202   2.049   3.195 -1.7016 -0.0139  1.3279
    3HFI     O1  514   0.980   1.524   3.384  0.2658  0.6344 -0.3349
    3HFI     C1  515   1.101   1.443   3.391  0.0093  0.5076 -0.7099
    3HFI     C2  516   1.130   1.369   3.255  0.0403  0.4513  0.4784
    3HFI     F1  517   1.239   1.287   3.266 -0.2394 -0.1873 -0.1656
    3HFI     F2  518   1.150   1.454   3.157  0.3394  0.1168 -0.2780
    3HFI     F3  519   1.031   1.280   3.225  0.0590  0.2858 -0.2115
    3HFI     C3  520   1.094   1.351   3.516  0.1891  0.4298  0.3266
    3HFI     F4  521   1.005   1.256   3.499 -0.3393  0.2427  0.1058
    3HFI     F5  522   1.053   1.425   3.625 -0.5678  0.1545  0.2879
    3HFI     F6  523   1.215   1.298   3.543  0.3640 -0.1616 -0.0741
    3HFI     H1  524   0.903   1.472   3.411  1.1999  0.4942  2.1623
    3HFI     H2  525   1.195   1.498   3.405  0.2184 -0.4100  1.8666
    4HFI     O1  526   1.941   2.325   2.597 -0.5703 -0.5614  0.3334
    4HFI     C1  527   1.983   2.252   2.719 -0.0113 -0.8665  0.2443
    4HFI     C2  528   1.876   2.262   2.826  0.7874  0.0574 -0.6268
    4HFI     F1  529   1.760   2.222   2.772  0.2542 -0.5717  0.2949
    4HFI     F2  530   1.849   2.390   2.852 -0.2284  0.3331  0.0035
    4HFI     F3  531   1.894   2.192   2.946  0.1343  0.4417  0.2861
    4HFI     C3  532   2.119   2.307   2.769 -0.2767 -0.0473 -0.1667
    4HFI     F4  533   2.105   2.434   2.819 -0.0218 -0.1237  0.4873
    4HFI     F5  534   2.205   2.310   2.667 -0.2914 -0.6520 -0.2424
    4HFI     F6  535   2.172   2.231   2.868 -0.0910 -0.0686 -0.1708
    4HFI     H1  536   2.021   2.351   2.548 -0.1114 -1.5615  0.5531
    4HFI     H2  537   1.997   2.144   2.711  1.1980 -0.6565 -0.5940
    5HFI     O1  538   0.867   1.449   2.745  0.1676  0.5577 -0.0087
    5HFI     C1  539   0.937   1.360   2.835  0.0560 -0.2036 -0.1209
    5HFI     C2  540   1.092   1.350   2.800  0.8005  0.0331  0.6417
    5HFI     F1  541   1.146   1.250   2.874  0.0841  0.4422  0.4008
    5HFI     F2  542   1.153   1.464   2.838 -0.0998 -0.3647  0.8250
    5HFI     F3  543   1.128   1.326   2.672  0.0328 -0.1797  0.5804
    5HFI     C3  544   0.868   1.215   2.832 -0.1364 -0.4951  0.2684
    5HFI     F4  545   0.884   1.161   2.706 -0.2865 -0.5904 -0.2612
    5HFI     F5  546   0.736   1.223   2.852 -0.0369 -0.1678  0.3947
    5HFI     F6  547   0.915   1.125   2.917  0.0111 -0.3024  0.1075
    5HFI     H1  548   0.775   1.418   2.736  0.1892  0.0424  1.2741
    5HFI     H2  549   0.928   1.396   2.938  0.5062  0.3116 -0.2571
    6HFI     O1  550   2.857   0.374   1.322 -0.4357 -0.3112 -0.1981
    6HFI     C1  551   2.871   0.472   1.424  0.5358 -0.3097 -0.5578
    6HFI     C2  552   2.989   0.447   1.515  0.1097  0.1396  0.5225
    6HFI     F1  553   2.982   0.339   1.593  0.2962  0.8016  0.0838
    6HFI     F2  554   3.012   0.553   1.592  0.4785 -0.0322  0.3509
    6HFI     F3  555   3.098   0.427   1.446 -0.2003 -0.0695 -0.0927
    6HFI     C3  556   2.738   0.496   1.507  0.5245  0.5929  0.4607
    6HFI     F4  557   2.719   0.386   1.589 -0.2239  0.5412 -0.5738
    6HFI     F5  558   2.629   0.504   1.430 -0.3232  0.1527 -0.3776
    6HFI     F6  559   2.735   0.613   1.579  0.1654 -0.5537 -0.3078
    6HFI     H1  560   2.812   0.420   1.249 -0.8545  1.4867  1.1455
    6HFI     H2  561   2.885   0.568   1.372 -3.0052  0.3153 -0.5255
    7HFI     O1  562   2.974   3.261   0.070  0.5993  0.6640  0.7419
    7HFI     C1  563   3.084   3.235  -0.021 -0.0518 -0.1176  0.0204
    7HFI     C2  564   3.047   3.216  -0.175  0.6349 -0.6659  0.3468
    7HFI     F1  565   2.996   3.092  -0.202  0.2245 -0.3976  0.0849
    7HFI     F2  566   3.156   3.226  -0.251 -0.5395  0.5062  0.2848
    7HFI     F3  567   2.951   3.308  -0.214 -0.5095 -0.2760  0.2773
    7HFI     C3  568   3.177   3.117   0.020  1.0146 -0.6768 -0.7480
    7HFI     F4  569   3.286   3.101  -0.059  0.1715 -0.0493  0.8304
    7HFI     F5  570   3.109   3.002   0.024 -0.0281  0.2201  0.6630
    7HFI     F6  571   3.214   3.139   0.144  0.2341  0.6382  0.3421
    7HFI     H1  572   2.940   3.178   0.107  0.4613 -0.6857 -2.3346
    7HFI     H2  573   3.155   3.318  -0.012 -1.5671  1.3948 -1.6648
    8HFI     O1  574   0.475   1.576   1.367  0.4640  0.1781 -0.0304
    8HFI     C1  575   0.561   1.570   1.490 -0.1188  0.2892 -0.0777
    8HFI     C2  576   0.616   1.717   1.533  0.1968 -0.2123 -0.6636
    8HFI     F1  577   0.524   1.791   1.590  0.2802 -0.1069 -0.3741
    8HFI     F2  578   0.647   1.787   1.428  0.1181  0.4717 -0.1431
    8HFI     F3  579   0.729   1.714   1.616 -0.0439 -0.1892 -0.3092
    8HFI     C3  580   0.685   1.478   1.469 -0.4069  0.0042 -0.3395
    8HFI     F4  581   0.640   1.355   1.426  0.2304 -0.3478 -0.0804
    8HFI     F5  582   0.756   1.452   1.582 -0.4727 -0.3050  0.2073
    8HFI     F6  583   0.769   1.527   1.380  0.1285  0.1496  0.0229
    8HFI     H1  584   0.509   1.648   1.311  2.7739 -1.0974 -0.3064
    8HFI     H2  585   0.502   1.523   1.570 -1.3740  0.2028 -1.0378
    9HFI     O1  586   0.044   0.589   1.309  0.2099 -0.2178 -0.4116
    9HFI     C1  587   0.152   0.642   1.393 -0.5526 -0.4504  0.0664
    9HFI     C2  588   0.258   0.550   1.448  0.0749 -0.2059 -0.6514
    9HFI     F1  589   0.356   0.618   1.511 -0.5796  0.4831  0.0660
    9HFI     F2  590   0.319   0.481   1.348  0.0480 -0.0986  0.0883
    9HFI     F3  591   0.210   0.461   1.539 -0.2730 -0.0012  0.0651
    9HFI     C3  592   0.096   0.747   1.504  0.5124  0.7126 -0.5022
    9HFI     F4  593   0.198   0.822   1.553 -0.3314 -0.2226 -0.1901
    9HFI     F5  594   0.050   0.682   1.609 -0.2258  0.5133 -0.4464
    9HFI     F6  595  -0.003   0.827   1.462 -0.2614  0.2788  0.8931
    9HFI     H1  596   0.073   0.552   1.224  0.5281 -0.7659 -0.0681
    9HFI     H2  597   0.209   0.708   1.326 -2.3359  1.4113  0.3451
   10HFI     O1  598   0.953   0.759   1.584 -0.5023  0.0051  0.5296
   10HFI     C1  599   0.938   0.671   1.470  0.2163  1.3418 -0.6796
   10HFI     C2  600   0.908   0.525   1.515  0.3534  0.1297 -0.0828
   10HFI     F1  601   0.875   0.441   1.411  0.1153 -0.3326  0.1664
   10HFI     F2  602   0.802   0.518   1.606 -0.3614 -0.1549 -0.6219
   10HFI     F3  603   1.011   0.474   1.580  0.1047 -0.2731 -0.4420
   10HFI     C3  604   1.072   0.667   1.386 -0.0856 -0.6467 -0.5115
   10HFI     F4  605   1.089   0.791   1.331 -0.2138 -0.2715 -0.2586
   10HFI     F5  606   1.072   0.580   1.286 -0.6516 -0.1051  0.6803
   10HFI     F6  607   1.184   0.640   1.452 -0.1348 -0.4359  0.7740
   10HFI     H1  608   0.989   0.845   1.556  0.4845 -1.2309 -2.2225
   10HFI     H2  609   0.862   0.700   1.397  0.9378 -0.7900 -2.3413
   11HFI     O1  610   1.140   1.911   0.698  0.7473  0.4010  0.0598
   11HFI     C1  611   1.016   1.867   0.764 -0.3481  0.4595 -0.2479
   11HFI     C2  612   0.945   1.976   0.854 -1.0193  0.1099  0.4816
   11HFI     F1  613   0.808   1.967   0.856 -0.3538 -0.5327 -0.0849
   11HFI     F2  614   0.971   2.097   0.801 -0.5765  0.1196  0.1811
   11HFI     F3  615   0.990   1.974   0.989 -0.0824 -0.2727 -0.0108
   11HFI     C3  616   1.035   1.732   0.843  0.5823 -0.0951 -0.1369
   11HFI     F4  617   1.113   1.739   0.948  0.0413 -0.5535  0.3039
   11HFI     F5  618   1.094   1.642   0.762 -0.7328  0.6098 -0.1740
   11HFI     F6  619   0.911   1.691   0.880  0.0938  0.2245  0.3869
   11HFI     H1  620   1.171   2.000   0.721  0.1368  0.1440  1.8928
   11HFI     H2  621   0.939   1.850   0.689 -1.9417 -0.7107  1.6010
   12HFI     O1  622   2.387   2.740   2.475 -0.3625  0.0297  1.0288
   12HFI     C1  623   2.252   2.774   2.431 -0.4937 -0.2604  0.4341
   12HFI     C2  624   2.144   2.704   2.514  0.0752  0.3439  0.2138
   12HFI     F1  625   2.014   2.739   2.494  0.0297  0.1033 -0.6685
   12HFI     F2  626   2.177   2.723   2.646  0.5349 -0.4775  0.0284
   12HFI     F3  627   2.148   2.571   2.503  0.0960 -0.1589 -0.2376
   12HFI     C3  628   2.219   2.781   2.276 -0.2608 -0.2672 -0.3846
   12HFI     F4  629   2.098   2.827   2.245  0.1370 -0.3875  0.4818
   12HFI     F5  630   2.222   2.656   2.225 -0.4149 -0.0442  0.1812
   12HFI     F6  631   2.308   2.853   2.206  0.3717 -0.0418  0.7117
   12HFI     H1  632   2.399   2.644   2.464 -0.3423  0.2596 -1.2469
   12HFI     H2  633   2.233   2.881   2.445  2.6869  0.2053  1.5455
   13HFI     O1  634   2.391   3.082   1.441 -0.0694 -0.4272 -0.3448
   13HFI     C1  635   2.357   3.189   1.533  0.3048 -0.7104  0.5481
   13HFI     C2  636   2.212   3.222   1.510  0.4236 -0.4098 -0.8265
   13HFI     F1  637   2.183   3.267   1.387 -0.4798 -0.0447 -0.2753
   13HFI     F2  638   2.173   3.318   1.595 -0.2474  0.1282 -0.2563
   13HFI     F3  639   2.138   3.115   1.536  0.3589  0.3867 -0.1987
   13HFI     C3  640   2.460   3.304   1.523  0.3709  0.3638  0.4458
   13HFI     F4  641   2.427   3.396   1.611  0.0830  0.0873  0.4023
   13HFI     F5  642   2.455   3.353   1.394 -0.1174 -0.1230 -0.1130
   13HFI     F6  643   2.585   3.260   1.550 -0.5088  0.2074 -0.0117
   13HFI     H1  644   2.485   3.094   1.421  0.6041  0.7420  3.1911
   13HFI     H2  645   2.363   3.142   1.633 -1.6224 -0.7599  0.6460
   14HFI     O1  646   0.597   2.190   1.286  0.5302 -0.6451 -0.4144
   14HFI     C1  647   0.723   2.220   1.356 -0.5009  0.2328  0.5756
   14HFI     C2  648   0.694   2.242   1.508  0.0348  0.4110  0.2846
   14HFI     F1  649   0.803   2.289   1.577 -0.8699 -0.2083  0.0528
   14HFI     F2  650   0.667   2.117   1.554  0.1070 -0.5687 -0.4449
   14HFI     F3  651   0.587   2.322   1.521  0.1189 -0.1980 -0.1192
   14HFI     C3  652   0.805   2.335   1.290  0.1073 -0.1932  0.8099
   14HFI     F4  653   0.830   2.310   1.166 -0.3287  0.2416  0.6192
   14HFI     F5  654   0.926   2.359   1.355  0.1266 -0.5919  0.4445
   14HFI     F6  655   0.734   2.448   1.291 -0.0770 -0.3000  0.2996
   14HFI     H1  656   0.519   2.233   1.324 -0.6506 -1.0709 -2.2831
   14HFI     H2  657   0.788   2.133   1.344  0.4351  0.8314  1.2174
   15HFI     O1  658   0.227   3.329   1.526  0.0553 -0.8165 -0.7679
   15HFI     C1  659   0.173   3.197   1.501 -0.4392  0.4008  0.1439
   15HFI     C2  660   0.237   3.142   1.372 -0.0049 -0.1035  0.2183
   15HFI     F1  661   0.359   3.082   1.400 -0.1417  0.2662  0.4070
   15HFI     F2  662   0.264   3.245   1.284 -0.1392  0.2400  0.2810
   15HFI     F3  663   0.163   3.060   1.300  0.2643  0.2412  0.1497
   15HFI     C3  664   0.028   3.207   1.502  0.0071  0.0059 -0.2005
   15HFI     F4  665  -0.016   3.251   1.391  0.2046 -0.1774  0.2082
   15HFI     F5  666  -0.016   3.289   1.605  0.2702 -0.0121  0.2462
   15HFI     F6  667  -0.030   3.087   1.527 -0.2312 -0.3941  0.1640
   15HFI     H1  668   0.182   3.394   1.470 -1.5603  0.6242  2.1101
   15HFI     H2  669   0.198   3.127   1.582 -1.5928  2.0066  1.9357
   16HFI     O1  670   2.984   1.754   2.215  0.5328  0.6287 -0.2411
   16HFI     C1  671   2.929   1.828   2.334  0.0195  0.0035  0.3022
   16HFI     C2  672   2.778   1.806   2.349 -0.1336 -0.6935 -0.3138
   16HFI     F1  673   2.722   1.830   2.231 -0.2165 -0.3804 -0.0349
   16HFI     F2  674   2.714   1.878   2.450 -0.4175 -0.2136 -0.2867
   16HFI     F3  675   2.749   1.673   2.375 -0.4654 -0.4140 -0.1607
   16HFI     C3  676   2.963   1.976   2.335 -0.5308 -0.6915 -0.2800
   16HFI     F4  677   2.929   2.031   2.458 -0.0839  0.5658  0.1694
   16HFI     F5  678   2.909   2.043   2.233  0.1261 -0.1987 -0.1661
   16HFI     F6  679   3.095   1.995   2.322 -0.3364  0.3455  0.2122
   16HFI     H1  680   2.926   1.761   2.138 -0.7206  0.4143  0.6727
   16HFI     H2  681   2.968   1.786   2.427  2.1931  0.5789 -0.3136
   17HFI     O1  682   1.643   0.717   1.379 -0.2685 -0.4127  0.3478
   17HFI     C1  683   1.765   0.637   1.383 -0.1250  0.2410  0.0601
   17HFI     C2  684   1.754   0.503   1.300 -0.2647  0.3484 -0.3985
   17HFI     F1  685   1.882   0.453   1.280  0.2129  0.4698  0.1788
   17HFI     F2  686   1.689   0.524   1.181 -0.4547  0.0445 -0.0253
   17HFI     F3  687   1.680   0.415   1.368 -0.2499 -0.0960 -0.2333
   17HFI     C3  688   1.812   0.617   1.533 -0.3919  0.1627  0.5619
   17HFI     F4  689   1.869   0.730   1.572  0.1355 -0.5270 -0.2235
   17HFI     F5  690   1.892   0.517   1.553  0.4085  0.8062 -0.0810
   17HFI     F6  691   1.705   0.606   1.609 -0.0818 -0.1089 -0.2034
   17HFI     H1  692   1.586   0.682   1.450 -1.0161  1.7111  0.8106
   17HFI     H2  693   1.848   0.695   1.340  0.3132 -0.1807  0.3399
   18HFI     O1  694   2.329   0.744   0.570  0.2468 -0.2906 -0.7775
   18HFI     C1  695   2.347   0.606   0.601  0.4919  0.4749 -0.2115
   18HFI     C2  696   2.432   0.597   0.731 -0.1127 -0.0483  0.1728
   18HFI     F1  697   2.383   0.680   0.830  0.2701 -0.4856  0.1083
   18HFI     F2  698   2.557   0.645   0.717 -0.0568 -0.1122 -0.2612
   18HFI     F3  699   2.446   0.464   0.769  0.5364  0.1950  0.0279
   18HFI     C3  700   2.399   0.508   0.483  0.0558  0.1504 -0.2317
   18HFI     F4  701   2.380   0.375   0.508 -0.0562 -0.1835  0.1952
   18HFI     F5  702   2.528   0.534   0.452  0.6007  0.2018  0.6621
   18HFI     F6  703   2.324   0.531   0.374 -0.1602  0.6939  0.0014
   18HFI     H1  704   2.270   0.781   0.638  1.2941 -0.1010  0.0525
   18HFI     H2  705   2.249   0.560   0.622  0.4674  0.3829 -0.5189
   19HFI     O1  706   2.004   0.859   3.483  0.8416 -0.5652 -0.3422
   19HFI     C1  707   2.034   0.785   3.358 -0.0823 -0.1023 -0.5596
   19HFI     C2  708   1.937   0.668   3.335  0.2639 -0.2415  0.3919
   19HFI     F1  709   1.972   0.588   3.232  0.0933  0.1700  0.0479
   19HFI     F2  710   1.826   0.727   3.305 -0.2476 -0.1186  0.6089
   19HFI     F3  711   1.918   0.597   3.444 -0.4631 -0.2693 -0.7490
   19HFI     C3  712   2.174   0.727   3.354  0.0648 -0.1995 -0.2648
   19HFI     F4  713   2.223   0.713   3.228  0.2684 -0.1675  0.0445
   19HFI     F5  714   2.191   0.608   3.421 -0.4363 -0.2721 -0.1262
   19HFI     F6  715   2.256   0.812   3.416 -0.0509  0.1307  0.1322
   19HFI     H1  716   2.083   0.869   3.538  1.0492 -0.2782 -0.6954
   19HFI     H2  717   2.024   0.841   3.264  2.5551 -0.4626 -1.1080
   20HFI     O1  718   1.502   1.765   1.394  0.5899  0.1045 -0.3333
   20HFI     C1  719   1.551   1.655   1.483  0.5772  0.3553  0.0454
   20HFI     C2  720   1.690   1.682   1.535  0.0869 -0.7516  0.1216
   20HFI     F1  721   1.741   1.586   1.612  0.6103 -0.0342 -0.8475
   20HFI     F2  722   1.687   1.796   1.606  0.1814  0.2812 -0.2132
   20HFI     F3  723   1.774   1.702   1.432  0.3992  0.1819 -0.0104
   20HFI     C3  724   1.538   1.514   1.415  0.6411 -0.3357  0.3500
   20HFI     F4  725   1.420   1.497   1.353 -0.1176 -0.5279  0.1273
   20HFI     F5  726   1.540   1.428   1.517 -0.6728  0.0483 -0.0154
   20HFI     F6  727   1.638   1.479   1.330  0.2321 -0.3000  0.0052
   20HFI     H1  728   1.579   1.801   1.346  0.0425  0.5120 -0.9109
   20HFI     H2  729   1.494   1.648   1.576  2.3493 -1.6815  0.9833
   21HFI     O1  730   1.810   0.230   0.412  0.1134  0.2823 -0.4590
   21HFI     C1  731   1.942   0.200   0.346  0.0972  0.5379  0.1301
   21HFI     C2  732   2.055   0.301   0.383 -0.6275 -0.3289  0.0823
   21HFI     F1  733   2.066   0.320   0.517 -0.2298 -0.5024  0.3141
   21HFI     F2  734   2.026   0.417   0.329  0.2311  0.0026 -0.5506
   21HFI     F3  735   2.166   0.263   0.334  0.1986 -0.2989  0.1664
   21HFI     C3  736   1.915   0.184   0.196  0.1238  0.7226 -0.6852
   21HFI     F4  737   1.818   0.092   0.170 -0.1857  0.0424 -0.3910
   21HFI     F5  738   2.022   0.153   0.122  0.4305  0.0679  0.3084
   21HFI     F6  739   1.871   0.298   0.140 -0.1493 -0.1497 -0.1952
   21HFI     H1  740   1.741   0.166   0.387  1.4302 -0.8334 -1.2483
   21HFI     H2  741   1.981   0.103   0.378 -2.0919 -0.6065 -0.5471
   22HFI     O1  742   0.530   0.027   0.839 -0.3335  0.0039 -0.0848
   22HFI     C1  743   0.469  -0.094   0.881 -0.0041  0.0504  0.3242
   22HFI     C2  744   0.332  -0.074   0.938 -0.1048 -0.3770  0.3493
   22HFI     F1  745   0.262  -0.006   0.844  0.2361 -0.4115  0.1110
   22HFI     F2  746   0.340   0.001   1.048  0.4016  0.2472  0.3146
   22HFI     F3  747   0.269  -0.189   0.966 -0.3980 -0.1642  0.5327
   22HFI     C3  748   0.552  -0.184   0.968 -0.0439  0.1421 -0.2110
   22HFI     F4  749   0.553  -0.146   1.094 -0.1040  0.4558 -0.2124
   22HFI     F5  750   0.682  -0.185   0.923 -0.3797 -0.3271  0.6838
   22HFI     F6  751   0.517  -0.315   0.962 -0.4510 -0.1562  0.0064
   22HFI     H1  752   0.617   0.001   0.805 -0.2630  1.2851 -0.9136
   22HFI     H2  753   0.446  -0.153   0.791 -3.8589 -1.3977  2.1519
   23HFI     O1  754   2.201   1.355   3.308 -0.2432 -0.5940 -0.4060
   23HFI     C1  755   2.067   1.334   3.259 -0.0612  0.0109 -0.4169
   23HFI     C2  756   1.999   1.201   3.307 -0.5788 -0.5577 -0.2309
   23HFI     F1  757   1.864   1.212   3.292 -0.6157  0.2438  0.1145
   23HFI     F2  758   2.018   1.185   3.436  0.8321 -0.1642  0.2215
   23HFI     F3  759   2.048   1.087   3.243  0.4513 -0.0644 -0.2448
   23HFI     C3  760   2.052   1.364   3.107 -0.4148  0.0287  0.1470
   23HFI     F4  761   2.063   1.494   3.078 -0.1033 -0.1975 -0.4798
   23HFI     F5  762   1.941   1.316   3.048 -0.2283 -0.1272  0.0873
   23HFI     F6  763   2.158   1.307   3.049  0.4616 -0.0400 -0.3913
   23HFI     H1  764   2.258   1.278   3.292 -2.5862 -3.0303  2.4215
   23HFI     H2  765   2.009   1.415   3.304 -3.1354 -2.4469  0.1658
   24HFI     O1  766   1.761   2.731   1.309  0.2958  0.4162  0.1698
   24HFI     C1  767   1.714   2.832   1.410 -0.2224 -0.1346  0.0256
   24HFI     C2  768   1.838   2.898   1.484 -0.2614 -0.1075 -0.7823
   24HFI     F1  769   1.808   3.018   1.547  0.9420 -0.0769 -0.0850
   24HFI     F2  770   1.926   2.929   1.391 -0.3400 -0.0866  0.0140
   24HFI     F3  771   1.898   2.823   1.572 -0.2952  0.5435  0.8246
   24HFI     C3  772   1.597   2.782   1.497  0.1743 -0.7235  0.4795
   24HFI     F4  773   1.561   2.877   1.590  0.2704  0.1381  0.1060
   24HFI     F5  774   1.636   2.666   1.557 -0.0030 -0.1640 -0.2924
   24HFI     F6  775   1.493   2.758   1.413  0.0773 -0.3887 -0.4891
   24HFI     H1  776   1.784   2.650   1.358 -1.3576  0.5999  1.2963
   24HFI     H2  777   1.671   2.922   1.364 -0.5902  1.0000  2.5231
   25HFI     O1  778   0.519   2.462   0.012  0.1167 -0.1866 -0.0056
   25HFI     C1  779   0.560   2.468  -0.125 -1.0351 -0.5697 -0.5717
   25HFI     C2  780   0.707   2.414  -0.138 -0.1906 -0.5056 -0.1890
   25HFI     F1  781   0.786   2.482  -0.050  0.1981  0.2475  0.3876
   25HFI     F2  782   0.767   2.419  -0.265  0.0503 -0.4521  0.1749
   25HFI     F3  783   0.705   2.288  -0.091 -0.1853  0.2765  0.0492
   25HFI     C3  784   0.550   2.610  -0.184 -0.1684  0.2935 -0.1890
   25HFI     F4  785   0.626   2.691  -0.116  0.5911 -0.6396 -0.1315
   25HFI     F5  786   0.420   2.647  -0.169 -0.1047 -0.1695 -0.1663
   25HFI     F6  787   0.582   2.625  -0.314  0.1565 -0.0259  0.0805
   25HFI     H1  788   0.592   2.514   0.051  0.5052  0.0844 -1.0508
   25HFI     H2  789   0.490   2.408  -0.185 -0.5869 -1.0723 -0.5916
   26HFI     O1  790   1.112   2.516   0.452 -0.2156 -0.4816  0.2284
   26HFI     C1  791   1.045   2.643   0.491 -0.5149  0.0715  0.0783
   26HFI     C2  792   1.002   2.631   0.642 -0.5641  0.1813  0.2550
   26HFI     F1  793   0.939   2.745   0.688 -0.2204 -0.3798 -0.6920
   26HFI     F2  794   1.109   2.605   0.721  0.1452  0.4444 -0.3089
   26HFI     F3  795   0.917   2.526   0.661 -0.3520 -0.4221 -0.3204
   26HFI     C3  796   0.920   2.666   0.406 -0.1288  0.2871 -0.2813
   26HFI     F4  797   0.951   2.690   0.279  0.2379 -0.9828 -0.3242
   26HFI     F5  798   0.825   2.758   0.439 -0.3174 -0.1313 -0.2228
   26HFI     F6  799   0.856   2.550   0.403  0.4211 -0.5362  0.3747
   26HFI     H1  800   1.096   2.483   0.362 -2.4506 -0.0958  0.4636
   26HFI     H2  801   1.110   2.731   0.482 -0.7380  0.2830  0.5401
   27HFI     O1  802   0.497   0.788   0.477  0.0100  0.2872 -0.3176
   27HFI     C1  803   0.499   0.913   0.547  0.0232 -0.4800  0.6318
   27HFI     C2  804   0.533   0.895   0.695  0.3856 -0.1115 -0.2227
   27HFI     F1  805   0.429   0.832   0.750  0.2020 -0.0273 -0.1902
   27HFI     F2  806   0.559   1.006   0.760 -0.0621  0.5889 -0.1835
   27HFI     F3  807   0.651   0.818   0.700  0.0282  0.2418 -0.0170
   27HFI     C3  808   0.378   1.005   0.519  0.5517 -0.4441 -0.4039
   27HFI     F4  809   0.260   0.958   0.574  0.5233 -0.4351 -0.1311
   27HFI     F5  810   0.357   1.026   0.386  0.4274 -0.6428  0.0559
   27HFI     F6  811   0.394   1.130   0.575 -0.3614  0.3539 -0.6471
   27HFI     H1  812   0.462   0.808   0.388  1.2733  1.8170 -0.4912
   27HFI     H2  813   0.585   0.975   0.520  0.0465  0.0576  1.9116
   28HFI     O1  814   0.252   1.183   1.114 -0.1224 -0.1407  0.4583
   28HFI     C1  815   0.136   1.109   1.055 -0.3414  0.0382  0.3329
   28HFI     C2  816   0.083   0.996   1.148 -0.5029 -0.8052 -0.0202
   28HFI     F1  817  -0.030   0.944   1.116  0.0444 -0.2893 -0.2798
   28HFI     F2  818   0.062   1.048   1.278 -0.5321  0.7258 -0.0847
   28HFI     F3  819   0.168   0.892   1.160 -0.0925 -0.0122  0.0187
   28HFI     C3  820   0.174   1.054   0.918 -0.6491  0.6425 -0.3776
   28HFI     F4  821   0.184   1.146   0.824  0.0758 -0.2216 -0.1710
   28HFI     F5  822   0.082   0.964   0.879  0.5519 -0.2355 -0.2094
   28HFI     F6  823   0.292   0.991   0.920 -0.1576 -0.3194  0.6000
   28HFI     H1  824   0.319   1.122   1.151 -0.8411 -0.3074  1.5149
   28HFI     H2  825   0.058   1.184   1.036 -1.3685 -1.1127 -0.0897
   29HFI     O1  826   0.322   2.159   1.597 -0.6943  0.6908 -0.6347
   29HFI     C1  827   0.257   2.150   1.471 -0.3164  0.2687 -0.8171
   29HFI     C2  828   0.253   2.282   1.389 -0.1010  0.2707 -0.2503
   29HFI     F1  829   0.172   2.269   1.282  0.5324 -0.4203  0.0696
   29HFI     F2  830   0.377   2.322   1.348  0.0099  0.3806 -0.1735
   29HFI     F3  831   0.201   2.381   1.457  0.4149 -0.0381  0.1041
   29HFI     C3  832   0.122   2.087   1.492  0.2838  0.9018 -0.2235
   29HFI     F4  833   0.127   1.972   1.567  0.1631 -0.0771 -0.0629
   29HFI     F5  834   0.052   2.057   1.383  0.4648 -0.3320  0.5113
   29HFI     F6  835   0.045   2.174   1.548 -0.1992 -0.6248 -0.1179
   29HFI     H1  836   0.271   2.207   1.664 -0.9005 -0.1797 -0.1570
   29HFI     H2  837   0.316   2.075   1.416  0.6163  0.5895 -0.2800
   30HFI     O1  838   2.080   0.801   0.796 -0.3421  0.1529 -0.1658
   30HFI     C1  839   1.956   0.727   0.799  0.6164 -0.0850 -0.0418
   30HFI     C2  840   1.907   0.683   0.939 -0.7608 -0.3185  0.3906
   30HFI     F1  841   2.002   0.625   1.012  0.1790  0.2196 -0.5299
   30HFI     F2  842   1.808   0.598   0.935  0.0323 -0.1645 -0.7809
   30HFI     F3  843   1.869   0.790   1.006 -0.3660 -0.5331  0.0664
   30HFI     C3  844   1.962   0.607   0.706  0.4598 -0.5370  0.5331
   30HFI     F4  845   2.043   0.509   0.747  0.0631  0.0784  0.5575
   30HFI     F5  846   2.012   0.645   0.587 -0.4824 -0.2158  0.0446
   30HFI     F6  847   1.843   0.545   0.687 -0.3430  0.3679 -0.4314
   30HFI     H1  848   2.086   0.868   0.866  0.0595 -1.0826  1.0151
   30HFI     H2  849   1.875   0.791   0.765  1.0283 -0.3713 -1.5999
   31HFI     O1  850   3.190   2.352   1.009 -0.0286  1.2356  0.4321
   31HFI     C1  851   3.069   2.389   0.934  0.2851  0.0289 -0.6915
   31HFI     C2  852   3.045   2.540   0.927 -1.1701 -0.0143  0.2107
   31HFI     F1  853   3.035   2.604   1.047 -0.1150  0.0378  0.2203
   31HFI     F2  854   2.935   2.572   0.868 -0.6070  0.0229 -0.4775
   31HFI     F3  855   3.143   2.597   0.861 -0.0246 -0.3871 -0.3322
   31HFI     C3  856   2.948   2.317   0.988  0.1870 -0.0141 -0.6447
   31HFI     F4  857   2.907   2.358   1.111  0.0588 -0.2236 -0.6002
   31HFI     F5  858   2.971   2.189   0.996 -0.4382  0.0077  0.3061
   31HFI     F6  859   2.846   2.330   0.902 -0.0070 -0.0287 -0.4316
   31HFI     H1  860   3.225   2.267   0.977 -1.1997  0.9013  0.0071
   31HFI     H2  861   3.084   2.374   0.827 -0.6593  0.0131 -0.8252
   32HFI     O1  862   2.530   1.167   0.953  0.0102 -0.0140  0.2979
   32HFI     C1  863   2.397   1.221   0.919 -0.2522 -0.3064  0.1641
   32HFI     C2  864   2.366   1.354   0.986 -0.2263  0.1631 -0.0541
   32HFI     F1  865   2.465   1.446   0.964 -0.0856  0.0241 -0.0901
   32HFI     F2  866   2.350   1.351   1.122  0.0312  0.0613  0.5664
   32HFI     F3  867   2.255   1.409   0.942 -0.0315  0.1931  0.2641
   32HFI     C3  868   2.296   1.109   0.951 -0.0259  0.4275 -0.0401
   32HFI     F4  869   2.310   0.995   0.874 -0.2618 -0.3007  0.4132
   32HFI     F5  870   2.172   1.142   0.923  0.0073  0.0202  0.2877
   32HFI     F6  871   2.292   1.067   1.082 -0.2312 -0.1035 -0.5032
   32HFI     H1  872   2.556   1.226   1.026 -0.4649  2.5134 -1.5405
   32HFI     H2  873   2.404   1.238   0.811  0.0031  1.1740  0.3956
   33HFI     O1  874   1.450   2.726   2.975 -0.0946 -0.1352  0.2649
   33HFI     C1  875   1.435   2.701   2.828 -0.3881  0.2802  0.0131
   33HFI     C2  876   1.337   2.585   2.824  0.0750 -0.4689  0.8854
   33HFI     F1  877   1.209   2.620   2.859  0.0355 -0.2571 -0.4013
   33HFI     F2  878   1.381   2.484   2.895  0.2059 -0.3133 -0.0544
   33HFI     F3  879   1.330   2.543   2.695 -0.0925  0.7062 -0.2896
   33HFI     C3  880   1.568   2.672   2.758 -0.2333  0.0637  0.1822
   33HFI     F4  881   1.564   2.662   2.628  0.0648  0.5138  0.3558
   33HFI     F5  882   1.625   2.559   2.803  0.4375  0.3210 -0.3084
   33HFI     F6  883   1.651   2.773   2.792 -0.1541  0.2328 -0.0510
   33HFI     H1  884   1.451   2.637   3.014 -0.4506 -0.5661 -0.6966
   33HFI     H2  885   1.409   2.794   2.776  0.2758 -0.8216 -2.3767
   34HFI     O1  886   1.541   1.859   3.144  0.2101  0.1401  0.1615
   34HFI     C1  887   1.391   1.844   3.131  0.5652 -0.6566  0.4779
   34HFI     C2  888   1.308   1.901   3.251 -0.3285  0.8078 -0.0717
   34HFI     F1  889   1.373   1.889   3.371  0.1191  0.2058 -0.3393
   34HFI     F2  890   1.177   1.847   3.263 -0.0866  0.4018  0.0590
   34HFI     F3  891   1.288   2.032   3.227 -0.2447  0.3134  0.2253
   34HFI     C3  892   1.361   1.700   3.083  1.3822  0.1322  0.5951
   34HFI     F4  893   1.457   1.662   2.995  0.0007  0.0770  0.0280
   34HFI     F5  894   1.240   1.687   3.019  0.2301  0.6589  0.2042
   34HFI     F6  895   1.362   1.611   3.180  0.8229  0.4033 -0.8175
   34HFI     H1  896   1.588   1.855   3.059  0.4275  0.0409  0.2884
   34HFI     H2  897   1.368   1.909   3.046  1.1174  2.7460  2.8242
   35HFI     O1  898   1.257   3.007   1.316 -0.1841 -0.3646 -0.2370
   35HFI     C1  899   1.222   3.145   1.360 -0.0488  0.9744  0.1221
   35HFI     C2  900   1.182   3.136   1.507 -0.6480  0.1856 -1.1559
   35HFI     F1  901   1.280   3.072   1.573 -0.5296 -0.2648  0.3922
   35HFI     F2  902   1.065   3.071   1.535  0.5126 -0.4964 -0.3773
   35HFI     F3  903   1.177   3.259   1.561  0.4300 -0.3238 -0.2336
   35HFI     C3  904   1.111   3.205   1.273  0.3088  0.4758 -0.0190
   35HFI     F4  905   1.005   3.129   1.254  0.2548 -0.0809  0.5733
   35HFI     F5  906   1.157   3.221   1.150 -0.3506 -0.3846  0.1456
   35HFI     F6  907   1.067   3.329   1.311 -0.1136 -0.2097 -0.0050
   35HFI     H1  908   1.175   2.957   1.299 -0.4670 -0.1550  0.5001
   35HFI     H2  909   1.306   3.215   1.354  1.3059 -0.5262  1.1542
   36HFI     O1  910   0.799   0.580   1.019  0.1509  0.2897 -0.3496
   36HFI     C1  911   0.666   0.630   1.030  0.2138 -0.9190  0.8792
   36HFI     C2  912   0.654   0.747   1.136  0.2464  0.5765 -0.2751
   36HFI     F1  913   0.741   0.851   1.106 -0.2518 -0.5530 -0.1954
   36HFI     F2  914   0.669   0.709   1.263  0.7943  0.1036  0.2649
   36HFI     F3  915   0.540   0.809   1.128 -0.7918  0.2428 -0.3870
   36HFI     C3  916   0.562   0.513   1.046 -0.1427  0.6366  0.4758
   36HFI     F4  917   0.441   0.565   1.064 -0.1012 -0.0781 -0.1857
   36HFI     F5  918   0.585   0.426   1.150 -0.3281 -0.3164 -0.2420
   36HFI     F6  919   0.560   0.440   0.933  0.6169 -0.1375 -0.1410
   36HFI     H1  920   0.813   0.503   1.076  1.1014  1.8314  1.5537
   36HFI     H2  921   0.636   0.675   0.935 -1.7453 -0.0179  1.8788
   37HFI     O1  922   2.979   2.020   1.328 -0.4274  0.2500 -0.2934
   37HFI     C1  923   3.083   1.964   1.411 -0.3789 -0.0757  0.1340
   37HFI     C2  924   3.051   1.826   1.472  0.7701  0.1540  0.1245
   37HFI     F1  925   3.037   1.727   1.385  0.6239 -0.3949  0.2800
   37HFI     F2  926   2.940   1.819   1.548  0.1809 -0.5463  0.5826
   37HFI     F3  927   3.154   1.784   1.554 -0.4312 -0.4425  0.1097
   37HFI     C3  928   3.116   2.067   1.512 -0.7298 -0.2351 -0.2548
   37HFI     F4  929   3.018   2.095   1.598  0.3859  0.3326 -0.5014
   37HFI     F5  930   3.151   2.181   1.446  0.1603  0.8850  0.0394
   37HFI     F6  931   3.222   2.028   1.591 -0.0553  0.8232  0.3392
   37HFI     H1  932   2.954   1.956   1.259 -0.1887  3.0184 -3.0226
   37HFI     H2  933   3.176   1.959   1.353 -0.3601  0.5998  0.1059
   38HFI     O1  934   1.002   3.400   0.642  0.1292 -0.3004 -0.1690
   38HFI     C1  935   0.963   3.261   0.626  0.4216 -0.4632 -0.0439
   38HFI     C2  936   1.077   3.174   0.556  0.6549  0.2928  0.6073
   38HFI     F1  937   1.105   3.201   0.428  0.1074  0.3766  0.3631
   38HFI     F2  938   1.050   3.043   0.566 -0.5439 -0.1293  0.0701
   38HFI     F3  939   1.182   3.190   0.630 -0.0498  0.4164 -0.0620
   38HFI     C3  940   0.827   3.239   0.556  0.0542  0.0683  0.5159
   38HFI     F4  941   0.738   3.316   0.627  0.0639 -0.6218 -0.0678
   38HFI     F5  942   0.773   3.112   0.549 -0.3312  0.1576 -0.0134
   38HFI     F6  943   0.829   3.296   0.436 -0.0911 -0.0824  0.4726
   38HFI     H1  944   1.099   3.401   0.647  0.2451 -2.5295 -1.3964
   38HFI     H2  945   0.948   3.232   0.730  0.9343 -0.2404  0.0925
   39HFI     O1  946   1.761   1.788   3.498 -0.1527 -0.4582 -0.0804
   39HFI     C1  947   1.795   1.766   3.350  0.3800 -0.7470  0.2893
   39HFI     C2  948   1.738   1.629   3.301  0.4906  0.2140 -0.4337
   39HFI     F1  949   1.746   1.606   3.169 -0.1030 -0.2750 -0.6073
   39HFI     F2  950   1.609   1.620   3.325 -0.0762  0.2606 -0.4000
   39HFI     F3  951   1.799   1.528   3.364  0.0341  0.1070 -0.0339
   39HFI     C3  952   1.952   1.788   3.323  0.6291 -0.2006  0.8178
   39HFI     F4  953   1.999   1.910   3.365  0.0582  0.0916 -0.6731
   39HFI     F5  954   1.972   1.782   3.187  0.4761  0.3485 -0.7350
   39HFI     F6  955   2.024   1.695   3.384  0.7610 -0.5675  0.0731
   39HFI     H1  956   1.827   1.740   3.552 -1.2015 -1.1397  0.6277
   39HFI     H2  957   1.743   1.847   3.298 -1.1217 -0.8808  1.5453
   40HFI     O1  958   2.871   0.924   0.169  0.0173  0.1118  0.0445
   40HFI     C1  959   2.800   0.800   0.146 -0.7900  0.0136 -0.2320
   40HFI     C2  960   2.874   0.677   0.201 -0.8939 -0.2642  0.1345
   40HFI     F1  961   2.906   0.691   0.333  0.1792  0.0585  0.2877
   40HFI     F2  962   2.996   0.654   0.138  0.1324 -0.3450  0.5529
   40HFI     F3  963   2.800   0.563   0.196 -0.1010 -0.0355 -0.7815
   40HFI     C3  964   2.755   0.784  -0.006 -0.6229 -0.5321 -0.7917
   40HFI     F4  965   2.860   0.772  -0.083  0.4712  0.1886 -0.0525
   40HFI     F5  966   2.679   0.887  -0.065 -0.6564 -0.2203  0.0225
   40HFI     F6  967   2.683   0.674  -0.018 -0.5231  0.1342 -0.1488
   40HFI     H1  968   2.934   0.944   0.097 -0.6557  0.9528 -0.3091
   40HFI     H2  969   2.705   0.794   0.200 -1.6505 -0.4582 -1.7419
   41HFI     O1  970   2.157   3.042   0.045  0.0535  0.2150 -0.1740
   41HFI     C1  971   2.069   3.125  -0.034 -0.0062 -0.1901 -0.4743
   41HFI     C2  972   2.007   3.243   0.044  0.4565 -0.4448  0.0906
   41HFI     F1  973   1.925   3.314  -0.041  0.3385 -0.5259  0.3245
   41HFI     F2  974   2.110   3.317   0.081  0.4059 -0.1543  0.4212
   41HFI     F3  975   1.940   3.210   0.160  0.0532 -0.4939 -0.4100
   41HFI     C3  976   1.966   3.040  -0.115  0.0117 -0.2843  0.9458
   41HFI     F4  977   1.999   2.911  -0.142  0.0085 -0.2623  0.2097
   41HFI     F5  978   1.943   3.097  -0.241 -0.4438 -0.1731 -0.5281
   41HFI     F6  979   1.848   3.043  -0.050 -0.3038 -0.4814  0.1619
   41HFI     H1  980   2.129   3.042   0.138  2.2262 -1.1234  0.5376
   41HFI     H2  981   2.129   3.162  -0.118  0.8586 -1.9647 -0.6669
   42HFI     O1  982   0.598   3.237   3.500 -0.3072 -0.1460 -0.4003
   42HFI     C1  983   0.568   3.196   3.364 -0.0174  0.2369 -0.1398
   42HFI     C2  984   0.474   3.073   3.378  0.1969  0.8806  0.1049
   42HFI     F1  985   0.538   2.962   3.418 -0.5100 -0.3185 -0.2643
   42HFI     F2  986   0.424   3.040   3.258  0.0585  0.5946 -0.5740
   42HFI     F3  987   0.366   3.108   3.452 -0.0892 -0.0284 -0.0242
   42HFI     C3  988   0.694   3.171   3.276  0.2168 -0.0099  0.5827
   42HFI     F4  989   0.789   3.265   3.299  0.1737  0.4041  0.9648
   42HFI     F5  990   0.661   3.161   3.145 -0.2945 -0.0556 -0.1168
   42HFI     F6  991   0.753   3.053   3.308  0.1905  0.1201 -0.0348
   42HFI     H1  992   0.622   3.153   3.544 -1.3261 -0.5586 -0.6140
   42HFI     H2  993   0.511   3.274   3.312  0.2590 -0.8197 -2.0633
   43HFI     O1  994   0.466   0.604   0.212 -0.0986 -0.0441  0.3139
   43HFI     C1  995   0.369   0.617   0.113 -0.1305  1.1993 -0.5903
   43HFI     C2  996   0.398   0.511   0.004 -0.2006  0.1632 -0.5152
   43HFI     F1  997   0.506   0.536  -0.078  0.0017 -0.2348 -0.0243
   43HFI     F2  998   0.289   0.497  -0.070  0.3983 -0.1330  0.1623
   43HFI     F3  999   0.425   0.388   0.056  0.2329  0.0442 -0.1594
   43HFI     C3 1000   0.358   0.757   0.062  0.0548 -0.9004 -0.1658
   43HFI     F4 1001   0.490   0.805   0.035  0.3965 -0.1161 -0.2401
   43HFI     F5 1002   0.304   0.841   0.157 -0.8774  0.2213 -0.7889
   43HFI     F6 1003   0.284   0.768  -0.053  0.1261  0.4099 -0.4729
   43HFI     H1 1004   0.538   0.543   0.189  0.4587  0.0275  1.8579
   43HFI     H2 1005   0.277   0.597   0.169  0.4846  0.1395  0.0687
   44HFI     O1 1006   3.252   2.429   2.274  0.4237 -0.0910 -0.6467
   44HFI     C1 1007   3.133   2.504   2.239 -0.2345  0.0064 -0.2575
   44HFI     C2 1008   3.158   2.656   2.244  0.7130 -0.3907  0.0948
   44HFI     F1 1009   3.186   2.686   2.374 -0.0035  0.5523  0.3875
   44HFI     F2 1010   3.047   2.732   2.218  0.7622 -0.5942 -0.0130
   44HFI     F3 1011   3.260   2.703   2.166  0.0701 -0.3573  0.8782
   44HFI     C3 1012   3.003   2.448   2.312 -0.2477  0.1276 -0.6874
   44HFI     F4 1013   2.896   2.508   2.267 -0.6586  0.3966  0.0359
   44HFI     F5 1014   3.019   2.470   2.447 -0.3470 -0.1039  0.4350
   44HFI     F6 1015   2.978   2.316   2.299 -0.4870 -0.0293 -0.2864
   44HFI     H1 1016   3.293   2.472   2.351  0.8971  1.0956 -1.5358
   44HFI     H2 1017   3.110   2.480   2.134 -0.4200  3.1327 -0.9934
   45HFI     O1 1018   2.378   1.958   1.023  0.2733  0.4904 -0.1551
   45HFI     C1 1019   2.457   2.008   0.913  0.5358  0.0650  0.6241
   45HFI     C2 1020   2.422   1.914   0.797  0.1647  0.0100 -0.2261
   45HFI     F1 1021   2.420   1.784   0.830 -0.0828 -0.4787 -0.2256
   45HFI     F2 1022   2.518   1.915   0.698  0.3574  0.6442  0.0742
   45HFI     F3 1023   2.306   1.952   0.742 -0.0789  0.3918 -0.7201
   45HFI     C3 1024   2.606   2.019   0.958  0.3469 -0.2793 -0.2085
   45HFI     F4 1025   2.604   2.086   1.076  0.4894  0.3281  0.2043
   45HFI     F5 1026   2.679   2.085   0.864  0.5674  0.2902  0.2874
   45HFI     F6 1027   2.662   1.899   0.983  0.3241 -0.0119  0.4941
   45HFI     H1 1028   2.395   2.006   1.106  2.0110  3.4107 -2.1406
   45HFI     H2 1029   2.420   2.109   0.891 -1.8006 -1.0234 -0.5738
   46HFI     O1 1030   2.853   2.454   1.372 -0.1389  0.8435 -0.3655
   46HFI     C1 1031   2.748   2.390   1.466  0.4603  0.1783  0.1737
   46HFI     C2 1032   2.684   2.257   1.419 -0.1892 -1.4312  0.1900
   46HFI     F1 1033   2.764   2.200   1.325 -0.3555  0.0258  0.0299
   46HFI     F2 1034   2.564   2.285   1.353 -0.4190 -0.2872  0.1930
   46HFI     F3 1035   2.662   2.164   1.517  0.6016 -0.0142  0.0632
   46HFI     C3 1036   2.639   2.490   1.516  0.0485 -0.5518 -0.3101
   46HFI     F4 1037   2.574   2.539   1.408  0.2481 -0.0252 -0.1198
   46HFI     F5 1038   2.688   2.589   1.585  0.3410 -0.2897  0.2302
   46HFI     F6 1039   2.546   2.427   1.596 -0.5613  0.3040 -0.0260
   46HFI     H1 1040   2.914   2.388   1.336 -0.5699  0.9372 -1.2796
   46HFI     H2 1041   2.798   2.350   1.555  0.3635 -2.8177 -1.0606
   47HFI     O1 1042   2.360   1.826   3.439  0.1260  0.0964 -0.1389
   47HFI     C1 1043   2.400   1.719   3.345 -0.0588  0.5132 -0.3350
   47HFI     C2 1044   2.483   1.595   3.402 -0.2943 -0.5601  0.1597
   47HFI     F1 1045   2.482   1.484   3.328  0.0115  0.5036 -0.0789
   47HFI     F2 1046   2.430   1.559   3.520 -0.4520  0.3921  0.3055
   47HFI     F3 1047   2.612   1.630   3.422  0.3010  0.7245 -0.0278
   47HFI     C3 1048   2.466   1.768   3.216  0.0228  0.2845 -0.1615
   47HFI     F4 1049   2.570   1.851   3.235  0.5519  0.0803  0.0679
   47HFI     F5 1050   2.371   1.844   3.152  0.0426  0.2742 -0.4462
   47HFI     F6 1051   2.493   1.670   3.125  0.2296 -0.4531 -0.1490
   47HFI     H1 1052   2.386   1.914   3.406  0.3863  0.2201  0.3761
   47HFI     H2 1053   2.311   1.659   3.320 -0.0338 -0.0911  1.0167
   48HFI     O1 1054   1.580   1.718   0.888 -0.2511  0.8336  0.1244
   48HFI     C1 1055   1.662   1.837   0.916  0.5912 -0.3997  0.0750
   48HFI     C2 1056   1.784   1.815   1.014  0.2558  0.2093  0.1631
   48HFI     F1 1057   1.742   1.797   1.144  0.0039  0.4028  0.2206
   48HFI     F2 1058   1.884   1.914   1.000 -0.2483  0.1763 -0.0741
   48HFI     F3 1059   1.839   1.697   0.982 -0.0550 -0.2589  0.0405
   48HFI     C3 1060   1.568   1.948   0.960  0.0380  0.0639 -0.4654
   48HFI     F4 1061   1.481   1.989   0.855  0.1576 -0.3828 -0.0426
   48HFI     F5 1062   1.639   2.055   1.002 -0.1549 -0.4575 -0.3356
   48HFI     F6 1063   1.489   1.913   1.071  1.0352 -0.3350 -1.0537
   48HFI     H1 1064   1.640   1.642   0.888  1.1236  1.8781  2.1527
   48HFI     H2 1065   1.716   1.875   0.828  0.8094 -0.9621 -0.0406
   49HFI     O1 1066   2.111   1.178   1.376 -0.0026  0.6030 -0.1011
   49HFI     C1 1067   2.127   1.325   1.402  0.0712  0.1581  0.4478
   49HFI     C2 1068   2.127   1.357   1.551  0.7171  0.0976  0.2742
   49HFI     F1 1069   1.996   1.360   1.594 -0.0965  0.0169  0.4083
   49HFI     F2 1070   2.188   1.477   1.563 -0.5050 -0.4389  0.2977
   49HFI     F3 1071   2.195   1.263   1.625  0.0386  0.4917 -0.2248
   49HFI     C3 1072   2.033   1.408   1.311  0.5491 -0.1391 -0.3321
   49HFI     F4 1073   2.065   1.540   1.307 -0.1986  0.2437 -0.1175
   49HFI     F5 1074   1.905   1.391   1.347 -0.2145  0.1866  0.0284
   49HFI     F6 1075   2.043   1.358   1.187  0.1575 -0.1928 -0.5655
   49HFI     H1 1076   2.035   1.141   1.425  1.1204  0.0850  1.3001
   49HFI     H2 1077   2.226   1.356   1.366 -0.3010  1.2411  0.3256
   50HFI     O1 1078   0.989   0.010   3.460  0.3208 -0.0653 -0.1609
   50HFI     C1 1079   1.035   0.080   3.342  0.0236 -0.2595 -0.0617
   50HFI     C2 1080   1.182   0.054   3.329 -0.0848 -0.8134  0.6207
   50HFI     F1 1081   1.239   0.138   3.241 -0.1971  0.8106 -0.8078
   50HFI     F2 1082   1.201  -0.070   3.285 -0.7248 -0.2079 -0.2527
   50HFI     F3 1083   1.238   0.071   3.443  0.0480  0.0115 -0.0378
   50HFI     C3 1084   0.992   0.219   3.352  0.3814 -0.3669 -0.7926
   50HFI     F4 1085   0.864   0.225   3.386 -0.0804  0.3314  0.1355
   50HFI     F5 1086   1.002   0.287   3.236  0.3513 -0.0997  0.1828
   50HFI     F6 1087   1.064   0.293   3.452 -0.0290  0.2887  0.1546
   50HFI     H1 1088   0.895   0.031   3.474 -0.6887 -2.2511 -3.1652
   50HFI     H2 1089   0.991   0.041   3.249 -1.4996  1.3683 -0.0669
   51HFI     O1 1090   1.573   0.353   2.789  0.6424 -0.3214 -0.2861
   51HFI     C1 1091   1.445   0.358   2.867 -0.3079 -0.0168  0.0743
   51HFI     C2 1092   1.326   0.288   2.795 -0.3729  0.2495 -0.0623
   51HFI     F1 1093   1.219   0.270   2.877 -0.2684 -0.3292  0.1491
   51HFI     F2 1094   1.360   0.169   2.746  0.3279 -0.0882 -0.3942
   51HFI     F3 1095   1.279   0.352   2.681  0.4576  0.1114  0.2042
   51HFI     C3 1096   1.407   0.508   2.915  0.0039 -0.0695  0.7370
   51HFI     F4 1097   1.380   0.581   2.807  0.3856 -0.5478  0.0318
   51HFI     F5 1098   1.508   0.571   2.977 -0.1837 -0.8000  0.1232
   51HFI     F6 1099   1.304   0.510   3.001 -0.1703 -0.4930 -0.6347
   51HFI     H1 1100   1.568   0.374   2.694  0.0298 -2.7424 -0.8173
   51HFI     H2 1101   1.444   0.299   2.959 -0.9398  0.7097  0.5327
   52HFI     O1 1102   2.721   1.758   0.501  0.3109  0.2525 -0.4715
   52HFI     C1 1103   2.614   1.728   0.405 -0.5281 -0.2724  0.6459
   52HFI     C2 1104   2.523   1.603   0.448 -0.5950  0.4109 -0.6488
   52HFI     F1 1105   2.445   1.635   0.552 -0.1105 -0.6487  0.1261
   52HFI     F2 1106   2.599   1.495   0.480  0.4715  0.2766  0.3061
   52HFI     F3 1107   2.441   1.575   0.346 -0.2032  0.5176  0.2593
   52HFI     C3 1108   2.678   1.709   0.264  0.1979 -0.2801 -0.2355
   52HFI     F4 1109   2.588   1.674   0.163 -0.5146  0.1765  0.0170
   52HFI     F5 1110   2.770   1.611   0.265 -0.6057  0.2051  0.4843
   52HFI     F6 1111   2.749   1.820   0.232 -0.2478  0.1971  0.4195
   52HFI     H1 1112   2.697   1.715   0.584  0.9758  1.2200  0.2397
   52HFI     H2 1113   2.546   1.812   0.390  0.9076  0.6818 -0.7099
   53HFI     O1 1114   1.049   0.790   0.782 -0.0340  0.0195 -0.7167
   53HFI     C1 1115   1.080   0.724   0.661  0.4372  0.6492 -0.1511
   53HFI     C2 1116   1.079   0.572   0.674 -0.5584  0.1020  0.2368
   53HFI     F1 1117   0.966   0.535   0.739 -0.4285  0.4170  0.5283
   53HFI     F2 1118   1.175   0.524   0.758 -0.2657  0.3159 -0.2157
   53HFI     F3 1119   1.084   0.509   0.557  0.3551  0.2205 -0.4862
   53HFI     C3 1120   1.201   0.776   0.586 -0.7666  0.0400 -0.1890
   53HFI     F4 1121   1.314   0.762   0.665 -0.0181 -0.1388  0.1589
   53HFI     F5 1122   1.178   0.906   0.565 -0.0025 -0.2230 -0.9029
   53HFI     F6 1123   1.223   0.725   0.465 -0.1072  0.0971  0.1027
   53HFI     H1 1124   1.042   0.719   0.848  1.8626 -0.7732 -1.3390
   53HFI     H2 1125   0.996   0.746   0.594 -0.7241 -0.3236  0.9482
   54HFI     O1 1126   2.723   3.436   0.613  0.1905  0.0008 -0.5136
   54HFI     C1 1127   2.703   3.572   0.672  0.4158 -0.4456 -0.1991
   54HFI     C2 1128   2.805   3.684   0.619  0.3320  0.4976 -0.3902
   54HFI     F1 1129   2.937   3.663   0.666  0.0900  0.2406 -0.8948
   54HFI     F2 1130   2.774   3.804   0.660  0.1860 -0.0509  0.6436
   54HFI     F3 1131   2.817   3.686   0.483  0.0995 -0.0058 -0.4152
   54HFI     C3 1132   2.678   3.564   0.822 -0.1433  0.1547 -0.1558
   54HFI     F4 1133   2.797   3.532   0.892  0.1506  0.0095  0.1288
   54HFI     F5 1134   2.585   3.464   0.859 -0.2289  0.2217  0.3267
   54HFI     F6 1135   2.631   3.682   0.872  0.1417  0.5291 -0.4643
   54HFI     H1 1136   2.741   3.441   0.517 -0.4754  2.1924 -0.5427
   54HFI     H2 1137   2.603   3.607   0.643  0.7930  1.6079  0.9115
   55HFI     O1 1138   0.676   2.770   1.325  0.3034  0.1619 -0.0191
   55HFI     C1 1139   0.595   2.833   1.435  0.2990 -0.4867  0.1286
   55HFI     C2 1140   0.682   2.932   1.508 -0.4395  0.0525  0.0354
   55HFI     F1 1141   0.750   3.020   1.422  0.0776 -0.2545  0.0987
   55HFI     F2 1142   0.769   2.867   1.588 -0.0900  0.0392 -0.4213
   55HFI     F3 1143   0.606   3.002   1.590  0.0857 -0.0162  0.3409
   55HFI     C3 1144   0.522   2.733   1.517  0.1688  0.2297  0.2939
   55HFI     F4 1145   0.437   2.800   1.601  0.5217  0.3018  0.2979
   55HFI     F5 1146   0.600   2.642   1.579 -0.5495  0.2188 -0.4304
   55HFI     F6 1147   0.445   2.649   1.446  0.3915  0.0710  0.0210
   55HFI     H1 1148   0.691   2.676   1.346 -0.1015 -0.0439 -0.6659
   55HFI     H2 1149   0.519   2.888   1.379  1.8294  0.0167 -1.5168
   56HFI     O1 1150   3.113   0.922   0.010 -0.5088  0.1169  0.2490
   56HFI     C1 1151   3.212   0.826  -0.042 -0.3285 -0.3210 -0.2015
   56HFI     C2 1152   3.309   0.802   0.075 -0.4380 -0.2627  0.7266
   56HFI     F1 1153   3.388   0.908   0.091 -0.4393  0.1996  0.5404
   56HFI     F2 1154   3.388   0.691   0.064  0.0769  0.2024  0.2965
   56HFI     F3 1155   3.240   0.780   0.193 -0.2442 -0.0947  0.4056
   56HFI     C3 1156   3.285   0.873  -0.175  0.2469 -0.8395  0.4955
   56HFI     F4 1157   3.205   0.872  -0.278 -0.3643  0.3145 -0.7989
   56HFI     F5 1158   3.388   0.799  -0.205  0.3776 -0.4316  0.1092
   56HFI     F6 1159   3.329   1.002  -0.161  0.0131  0.3074 -0.1812
   56HFI     H1 1160   3.146   1.011  -0.013  2.3932 -1.1481 -0.6892
   56HFI     H2 1161   3.164   0.732  -0.071  0.5288 -0.5343 -0.9649
   57HFI     O1 1162   1.614   0.114   3.489 -0.4914 -0.2372  0.3138
   57HFI     C1 1163   1.594   0.205   3.380 -0.2602  0.3465 -0.7151
   57HFI     C2 1164   1.587   0.132   3.250  0.1559  0.1095  0.1271
   57HFI     F1 1165   1.558   0.226   3.154  0.4940 -0.0505 -0.0323
   57HFI     F2 1166   1.493   0.039   3.244 -0.0604  0.6886 -0.2364
   57HFI     F3 1167   1.701   0.066   3.217 -0.0404 -0.0188 -0.1023
   57HFI     C3 1168   1.688   0.325   3.388 -0.8385  0.0683  0.5445
   57HFI     F4 1169   1.798   0.296   3.308 -0.2043  0.0280  0.3978
   57HFI     F5 1170   1.720   0.360   3.510 -0.3417 -0.1486  0.0843
   57HFI     F6 1171   1.636   0.432   3.329  0.4513 -0.0120 -0.3841
   57HFI     H1 1172   1.634   0.166   3.568  0.5103 -0.5458  0.2805
   57HFI     H2 1173   1.498   0.255   3.396 -0.7300 -0.2664 -1.5424
   58HFI     O1 1174   3.186   1.239   1.092  0.4014 -0.7702  0.0576
   58HFI     C1 1175   3.095   1.245   0.978 -0.7812  0.0416 -0.7173
   58HFI     C2 1176   3.161   1.299   0.850 -0.1346  0.0127  0.5571
   58HFI     F1 1177   3.279   1.243   0.832  0.3358 -0.2482 -0.2115
   58HFI     F2 1178   3.179   1.433   0.855 -0.1684  0.0572  0.8433
   58HFI     F3 1179   3.090   1.269   0.738  0.3848  0.3981  0.6726
   58HFI     C3 1180   2.963   1.303   1.025 -0.2773  0.1006  0.3436
   58HFI     F4 1181   2.976   1.413   1.091  0.2645  0.2348 -0.4807
   58HFI     F5 1182   2.900   1.202   1.092  0.3555 -0.6858 -0.5402
   58HFI     F6 1183   2.880   1.331   0.919 -0.2675 -0.4789  0.2110
   58HFI     H1 1184   3.141   1.197   1.167  0.9395 -1.6870 -0.1185
   58HFI     H2 1185   3.078   1.138   0.959  1.5810 -0.3982 -0.3948
   59HFI     O1 1186   2.844   2.883   1.194  0.7551 -0.7677 -0.2426
   59HFI     C1 1187   2.850   2.836   1.333  0.2601 -0.3391  0.0130
   59HFI     C2 1188   2.723   2.886   1.410 -0.5309  0.7852 -0.0914
   59HFI     F1 1189   2.610   2.826   1.362  0.0825 -0.2223  0.6914
   59HFI     F2 1190   2.695   3.019   1.413 -0.0994 -0.4706  0.1979
   59HFI     F3 1191   2.737   2.851   1.538 -0.3535 -0.4041  0.0859
   59HFI     C3 1192   2.995   2.872   1.396 -0.5507  0.3434 -0.0157
   59HFI     F4 1193   3.008   3.002   1.421  0.3521 -0.3613  0.5445
   59HFI     F5 1194   3.096   2.848   1.311  0.3265 -0.0180 -0.3313
   59HFI     F6 1195   3.023   2.813   1.513 -0.2364 -0.1115 -0.2758
   59HFI     H1 1196   2.917   2.843   1.144  1.7167  0.1184  0.4223
   59HFI     H2 1197   2.845   2.726   1.343  0.8786 -0.3804 -0.0988
   60HFI     O1 1198   0.538   2.766   2.917  0.0174  0.2055  0.2358
   60HFI     C1 1199   0.425   2.703   2.852 -0.6448  0.6536  0.4112
   60HFI     C2 1200   0.307   2.796   2.824  0.4276 -0.1183 -0.3019
   60HFI     F1 1201   0.329   2.893   2.733  0.0866  0.1354 -0.0238
   60HFI     F2 1202   0.271   2.859   2.941 -0.0883 -0.6060 -0.0319
   60HFI     F3 1203   0.207   2.726   2.777 -0.1321 -0.1305  0.0665
   60HFI     C3 1204   0.378   2.566   2.916 -0.5349  1.4595  0.1353
   60HFI     F4 1205   0.486   2.484   2.950 -0.7676  0.1081 -0.2271
   60HFI     F5 1206   0.302   2.494   2.831  0.0657 -0.0090  0.4075
   60HFI     F6 1207   0.304   2.577   3.029 -0.1397  0.3518  0.3249
   60HFI     H1 1208   0.605   2.698   2.935  0.9223  1.7939  3.2300
   60HFI     H2 1209   0.457   2.681   2.749  0.7342  3.7690  0.1149
   61HFI     O1 1210   1.513   0.828   0.900  0.3661 -0.4992 -0.2215
   61HFI     C1 1211   1.464   0.775   1.025  0.1214 -0.3204 -0.9350
   61HFI     C2 1212   1.377   0.644   1.004 -0.5939 -0.6289  0.1591
   61HFI     F1 1213   1.368   0.572   1.114  0.0644 -0.0655 -0.2033
   61HFI     F2 1214   1.444   0.570   0.912 -0.8424  0.1707 -0.2667
   61HFI     F3 1215   1.255   0.672   0.954  0.0311  0.0291  0.4417
   61HFI     C3 1216   1.394   0.885   1.111  0.2923 -0.2628  0.2505
   61HFI     F4 1217   1.365   0.836   1.235 -0.1060 -0.2506 -0.3017
   61HFI     F5 1218   1.278   0.915   1.053 -0.1014 -0.3021 -0.3180
   61HFI     F6 1219   1.474   0.994   1.127 -0.1755  0.2813  0.1484
   61HFI     H1 1220   1.444   0.834   0.831  1.8770 -0.1662 -1.7210
   61HFI     H2 1221   1.546   0.746   1.092  0.8960 -2.0686 -2.5890
   62HFI     O1 1222   0.697   2.830   1.042 -0.2284 -0.0626 -0.0599
   62HFI     C1 1223   0.827   2.821   0.972  0.4463 -0.4442  0.5300
   62HFI     C2 1224   0.938   2.757   1.061 -1.1037 -0.7350 -0.5996
   62HFI     F1 1225   0.888   2.671   1.153 -0.3816  0.0340 -0.5533
   62HFI     F2 1226   1.015   2.843   1.127  0.1474  0.5054 -0.2937
   62HFI     F3 1227   1.010   2.682   0.979 -0.2603  0.6524 -0.3234
   62HFI     C3 1228   0.858   2.963   0.915  1.4111  0.7005  0.1823
   62HFI     F4 1229   0.767   2.997   0.821 -0.4089 -0.8904 -0.0091
   62HFI     F5 1230   0.975   2.962   0.855 -0.3054  0.5247  0.2311
   62HFI     F6 1231   0.862   3.059   1.009 -0.5459  0.0132  0.2194
   62HFI     H1 1232   0.700   2.789   1.130 -1.3019  3.0684  1.4949
   62HFI     H2 1233   0.822   2.755   0.885  0.1665  0.4803 -0.1582
   63HFI     O1 1234   1.048   2.461   3.225  0.2227  0.1372 -0.0434
   63HFI     C1 1235   0.947   2.365   3.177 -0.1208 -0.5676  0.3834
   63HFI     C2 1236   0.807   2.424   3.144 -0.3983 -0.6349  0.0949
   63HFI     F1 1237   0.725   2.334   3.076  0.1125 -0.3271 -0.3218
   63HFI     F2 1238   0.812   2.538   3.066 -0.3940  0.4256 -0.3573
   63HFI     F3 1239   0.743   2.449   3.258  0.0043 -0.3058  0.3909
   63HFI     C3 1240   0.949   2.231   3.261 -0.2359 -0.5503  0.2791
   63HFI     F4 1241   0.911   2.257   3.391 -0.5016  0.1090  0.1164
   63HFI     F5 1242   1.064   2.167   3.263 -0.7992 -0.1608 -0.3525
   63HFI     F6 1243   0.858   2.140   3.208 -0.0798  0.1361 -0.3912
   63HFI     H1 1244   1.050   2.455   3.322 -0.7146  0.9332  0.0285
   63HFI     H2 1245   0.979   2.326   3.079 -0.3698 -0.6284  0.3274
   64HFI     O1 1246   1.083   2.324   0.242  0.1828  0.4014  0.1172
   64HFI     C1 1247   0.960   2.252   0.275  0.5680  0.8822 -0.8063
   64HFI     C2 1248   0.937   2.193   0.417  0.0849 -0.6740  0.3084
   64HFI     F1 1249   1.022   2.091   0.450  0.3058 -0.5272 -0.7049
   64HFI     F2 1250   0.811   2.138   0.425  0.6054  0.1487  0.7351
   64HFI     F3 1251   0.949   2.284   0.512  0.4460 -0.2604  0.0687
   64HFI     C3 1252   0.921   2.146   0.168  0.0919  0.0099 -0.7347
   64HFI     F4 1253   0.786   2.116   0.170 -0.3351 -0.3408  0.8205
   64HFI     F5 1254   0.979   2.030   0.190  0.4560 -0.1722 -0.2678
   64HFI     F6 1255   0.939   2.187   0.042 -0.0093 -0.1818 -0.1268
   64HFI     H1 1256   1.122   2.287   0.161  3.0235  1.2368  1.0514
   64HFI     H2 1257   0.873   2.318   0.266 -0.1728  0.2933  1.5618
   65HFI     O1 1258   3.158   2.874   1.028  0.4629  0.5264 -0.0192
   65HFI     C1 1259   3.268   2.957   0.994  0.3319 -0.2479 -0.4606
   65HFI     C2 1260   3.259   3.092   1.070  0.2326 -0.2644  0.4802
   65HFI     F1 1261   3.369   3.168   1.043  0.1447  0.6999  0.5377
   65HFI     F2 1262   3.254   3.078   1.207  0.2227  0.2761 -0.5602
   65HFI     F3 1263   3.150   3.154   1.031 -0.2806 -0.0271 -0.2422
   65HFI     C3 1264   3.288   2.975   0.840  0.0638 -0.4635  0.2586
   65HFI     F4 1265   3.172   3.026   0.783  0.2760  0.4712 -0.4646
   65HFI     F5 1266   3.307   2.850   0.791 -0.2804  0.1606 -0.5642
   65HFI     F6 1267   3.393   3.051   0.815  0.0978  0.2794  0.0486
   65HFI     H1 1268   3.164   2.795   0.971 -0.0748  0.2304  0.3212
   65HFI     H2 1269   3.362   2.916   1.032  0.2753 -0.1894 -0.2597
   66HFI     O1 1270   0.036   2.210   0.992  0.4254  0.5197 -0.3033
   66HFI     C1 1271   0.118   2.188   0.866  0.2589  0.0820 -0.0152
   66HFI     C2 1272   0.250   2.262   0.872 -0.5946  0.2609 -0.3438
   66HFI     F1 1273   0.235   2.391   0.841 -0.2908  0.2940 -0.2998
   66HFI     F2 1274   0.349   2.199   0.796  0.0347  0.2346  0.5437
   66HFI     F3 1275   0.292   2.263   1.004  0.2678 -0.3312 -0.5558
   66HFI     C3 1276   0.027   2.235   0.753  0.7078  0.3535 -0.2890
   66HFI     F4 1277   0.091   2.252   0.633  0.0717 -0.3794  0.0340
   66HFI     F5 1278  -0.026   2.362   0.776  0.4899 -0.1951  0.4434
   66HFI     F6 1279  -0.080   2.150   0.732  0.1218 -0.0627  0.7880
   66HFI     H1 1280   0.091   2.271   1.045  0.7657 -0.3890  0.4081
   66HFI     H2 1281   0.145   2.084   0.842 -0.2995 -0.3293  1.0808
   67HFI     O1 1282   2.049   0.906   2.620 -0.0502  0.1712  0.4207
   67HFI     C1 1283   2.086   0.896   2.771  0.5387 -0.1288 -0.3406
   67HFI     C2 1284   1.992   0.800   2.849  0.0134  0.3227 -0.1213
   67HFI     F1 1285   2.021   0.777   2.976 -0.0341  0.2667 -0.3639
   67HFI     F2 1286   1.993   0.679   2.794  0.2290 -0.0932 -0.2642
   67HFI     F3 1287   1.859   0.836   2.854  0.0482 -0.2602  0.2129
   67HFI     C3 1288   2.088   1.037   2.830 -0.1898 -0.8069  0.3236
   67HFI     F4 1289   2.170   1.117   2.756  0.1543 -0.3418 -0.0220
   67HFI     F5 1290   2.120   1.038   2.956  0.1114 -0.0713 -0.6557
   67HFI     F6 1291   1.965   1.088   2.821 -0.7203 -0.6801 -0.2082
   67HFI     H1 1292   1.999   0.825   2.598 -1.3216  0.7176  1.2125
   67HFI     H2 1293   2.191   0.871   2.788  0.8082 -0.7062 -2.7264
   68HFI     O1 1294   2.478   0.711   0.204  0.4373  0.2996  0.1783
   68HFI     C1 1295   2.387   0.792   0.122  0.5252  0.3785  0.5633
   68HFI     C2 1296   2.305   0.892   0.217  0.5553 -0.1210 -0.0922
   68HFI     F1 1297   2.233   0.982   0.145  0.5714  0.1507 -0.0777
   68HFI     F2 1298   2.385   0.959   0.292  0.4040 -0.2804  0.3567
   68HFI     F3 1299   2.221   0.824   0.300  0.3200  0.2697 -0.5287
   68HFI     C3 1300   2.298   0.715   0.020 -0.9236 -0.3900 -0.4032
   68HFI     F4 1301   2.186   0.667   0.073  0.0673 -0.1372  0.1424
   68HFI     F5 1302   2.365   0.613  -0.032 -0.1527 -0.0330 -0.3762
   68HFI     F6 1303   2.267   0.799  -0.079  0.1532  0.3490  0.1647
   68HFI     H1 1304   2.420   0.652   0.254 -2.0304  3.5998  1.3990
   68HFI     H2 1305   2.448   0.857   0.058 -0.1195  0.4268 -0.0076
   69HFI     O1 1306   0.067   1.124   3.149  0.8486 -0.4326  1.0097
   69HFI     C1 1307  -0.002   1.218   3.242  0.5741 -0.0477 -0.1403
   69HFI     C2 1308   0.059   1.363   3.242  0.0115 -0.1289  0.2585
   69HFI     F1 1309   0.007   1.452   3.330 -0.0854 -0.4378 -0.1776
   69HFI     F2 1310   0.054   1.406   3.120  0.0991 -0.4518  0.0020
   69HFI     F3 1311   0.191   1.354   3.273 -0.1113  0.0375  0.2720
   69HFI     C3 1312  -0.015   1.158   3.380 -0.7662 -0.5047 -0.1202
   69HFI     F4 1313  -0.071   1.036   3.359 -0.1664 -0.4036  0.0489
   69HFI     F5 1314  -0.091   1.235   3.465  0.3887 -0.2037  0.0535
   69HFI     F6 1315   0.109   1.140   3.441  0.4432  0.6332  0.5752
   69HFI     H1 1316   0.014   1.097   3.073  0.6436 -0.5524  1.1962
   69HFI     H2 1317  -0.106   1.225   3.206 -0.4584 -2.7024  2.1413
   70HFI     O1 1318   1.430   2.909   0.805  0.0105 -0.2874  0.0992
   70HFI     C1 1319   1.469   2.794   0.890  0.1833  0.0668  0.0806
   70HFI     C2 1320   1.416   2.823   1.037 -0.3561 -0.0252 -0.3187
   70HFI     F1 1321   1.467   2.726   1.121 -0.0598  0.2834  0.9033
   70HFI     F2 1322   1.283   2.810   1.046 -0.1912  0.1706  0.2137
   70HFI     F3 1323   1.454   2.942   1.081  0.1023  0.0935 -0.1729
   70HFI     C3 1324   1.625   2.781   0.892 -0.1729  0.2603  0.4921
   70HFI     F4 1325   1.667   2.777   0.767  0.3461  0.1776  0.3006
   70HFI     F5 1326   1.672   2.662   0.938  0.2950 -0.2310  0.7467
   70HFI     F6 1327   1.697   2.884   0.949  0.3942  0.4241  0.1395
   70HFI     H1 1328   1.420   2.989   0.860  0.8203  1.0107 -1.5700
   70HFI     H2 1329   1.428   2.698   0.856  1.8145  0.1293 -2.1094
   71HFI     O1 1330   2.599   3.289   3.257  0.3693  0.1894 -0.2740
   71HFI     C1 1331   2.730   3.350   3.258  0.0597 -0.3659  0.3666
   71HFI     C2 1332   2.733   3.473   3.161 -0.4163 -0.7629  0.5721
   71HFI     F1 1333   2.853   3.536   3.142  0.5186  0.2493  0.4013
   71HFI     F2 1334   2.639   3.571   3.206  0.0337 -0.0406  0.8314
   71HFI     F3 1335   2.697   3.438   3.035  0.4315  0.7811  0.3779
   71HFI     C3 1336   2.845   3.251   3.241  0.5796  0.0304 -0.1919
   71HFI     F4 1337   2.832   3.194   3.115 -0.0034  0.1852 -0.1602
   71HFI     F5 1338   2.829   3.146   3.330  0.0009 -0.5503 -0.3516
   71HFI     F6 1339   2.959   3.310   3.259 -0.2612 -0.7635 -0.3491
   71HFI     H1 1340   2.603   3.217   3.193 -1.4421 -0.8884  0.7937
   71HFI     H2 1341   2.745   3.396   3.356 -3.5620  1.1116  0.2975
   72HFI     O1 1342   1.609   1.198   1.304 -0.3737  0.0233  0.0575
   72HFI     C1 1343   1.602   1.087   1.394  0.1457 -0.3821 -0.6289
   72HFI     C2 1344   1.470   1.053   1.478  0.2424 -0.3495 -0.2032
   72HFI     F1 1345   1.447   1.138   1.577  0.3111  0.5111 -0.0400
   72HFI     F2 1346   1.466   0.925   1.524  0.1737 -0.9162  0.3553
   72HFI     F3 1347   1.362   1.060   1.400 -0.3345 -0.2557 -0.4463
   72HFI     C3 1348   1.726   1.102   1.493  0.4905 -0.0608  0.4997
   72HFI     F4 1349   1.724   1.215   1.568 -0.0903 -0.5920  0.3745
   72HFI     F5 1350   1.846   1.113   1.420 -0.2599  0.0489 -0.1166
   72HFI     F6 1351   1.740   0.995   1.574  0.1291  0.0341  0.6077
   72HFI     H1 1352   1.698   1.237   1.306  0.3961 -1.6753 -0.6080
   72HFI     H2 1353   1.630   1.002   1.331 -0.4616 -0.1656 -1.1895
   73HFI     O1 1354   2.166   1.317   0.349  0.0855 -0.4572 -0.1933
   73HFI     C1 1355   2.087   1.201   0.391 -0.1376 -0.2821 -0.5685
   73HFI     C2 1356   1.931   1.216   0.385  0.0886 -0.3326 -0.5582
   73HFI     F1 1357   1.894   1.339   0.432 -0.3556  0.3950 -0.1374
   73HFI     F2 1358   1.869   1.123   0.459 -0.1868 -0.0580 -0.1692
   73HFI     F3 1359   1.889   1.208   0.259 -0.3808 -0.0217 -0.2241
   73HFI     C3 1360   2.137   1.148   0.521 -0.0718  0.4596 -0.3889
   73HFI     F4 1361   2.076   1.026   0.559  0.2870 -0.3463 -0.5431
   73HFI     F5 1362   2.120   1.237   0.618  0.1913 -0.1277 -0.0612
   73HFI     F6 1363   2.263   1.118   0.508  0.2567  0.4935 -0.2569
   73HFI     H1 1364   2.113   1.398   0.354 -0.3752 -0.7622 -0.0808
   73HFI     H2 1365   2.099   1.119   0.319 -0.1305  0.0740 -0.9789
   74HFI     O1 1366   1.718   1.360   2.502 -0.2321  0.2103 -0.0026
   74HFI     C1 1367   1.805   1.274   2.429 -0.7636  0.0478  1.0592
   74HFI     C2 1368   1.956   1.296   2.473 -0.3611 -0.0896 -0.0976
   74HFI     F1 1369   2.025   1.178   2.436 -0.2954  0.1094  0.0780
   74HFI     F2 1370   1.969   1.315   2.608  0.0876  0.1071  0.2450
   74HFI     F3 1371   2.019   1.395   2.406  0.0886 -0.2427  0.0031
   74HFI     C3 1372   1.778   1.282   2.277 -0.2165 -0.6961 -0.2213
   74HFI     F4 1373   1.813   1.398   2.225 -0.2101  0.4172  0.7230
   74HFI     F5 1374   1.647   1.260   2.250 -0.2759  0.2985  0.6593
   74HFI     F6 1375   1.857   1.190   2.211  0.3802  0.4505 -0.0985
   74HFI     H1 1376   1.632   1.358   2.456  0.0885  2.0870 -0.6875
   74HFI     H2 1377   1.783   1.170   2.454  0.0304  0.0364  1.7313
   75HFI     O1 1378   1.049   1.695   1.307 -0.3546 -1.1080 -0.4240
   75HFI     C1 1379   1.162   1.761   1.375  0.0504 -0.5148 -0.0380
   75HFI     C2 1380   1.158   1.748   1.527  0.1706 -0.1209  0.4566
   75HFI     F1 1381   1.138   1.619   1.565 -0.2577  0.1541 -0.0224
   75HFI     F2 1382   1.056   1.818   1.576  0.2452 -0.3429 -0.3085
   75HFI     F3 1383   1.270   1.790   1.590 -0.2829  0.4225 -0.0027
   75HFI     C3 1384   1.180   1.908   1.336 -0.5341  0.0704 -0.6224
   75HFI     F4 1385   1.066   1.980   1.340 -0.2412 -0.5485 -0.6536
   75HFI     F5 1386   1.232   1.926   1.216  0.6396  0.3842 -0.1479
   75HFI     F6 1387   1.269   1.980   1.418 -0.5300  0.5067 -0.9427
   75HFI     H1 1388   1.040   1.602   1.334 -2.3993 -1.6202 -2.7203
   75HFI     H2 1389   1.258   1.718   1.344  0.4255 -1.1215  1.9215
   76HFI     O1 1390   0.065   0.390   1.117  0.2719  0.0757 -0.3632
   76HFI     C1 1391  -0.007   0.275   1.173  0.2188  0.3933  0.5264
   76HFI     C2 1392   0.075   0.195   1.286 -0.0401 -0.2924 -0.0927
   76HFI     F1 1393   0.115   0.269   1.390  0.2211  0.1188  0.0703
   76HFI     F2 1394   0.196   0.146   1.234  0.4740  0.0640  0.0491
   76HFI     F3 1395   0.002   0.097   1.344  0.1173 -0.1444 -0.2603
   76HFI     C3 1396  -0.067   0.183   1.058 -0.2573  0.0454  0.3860
   76HFI     F4 1397   0.034   0.153   0.976 -0.1999  0.2670  0.5116
   76HFI     F5 1398  -0.158   0.245   0.978 -0.0277  0.1426  0.2435
   76HFI     F6 1399  -0.123   0.072   1.112 -0.3269 -0.1108 -0.0187
   76HFI     H1 1400   0.148   0.364   1.073 -0.0309  0.2430 -1.0408
   76HFI     H2 1401  -0.089   0.321   1.228 -0.1989  0.3426 -0.0428
   77HFI     O1 1402   2.746   2.707   3.169 -0.1936  0.1635  0.3750
   77HFI     C1 1403   2.675   2.831   3.210 -0.3284 -0.4719  0.4168
   77HFI     C2 1404   2.560   2.795   3.303  0.0245 -1.3026  0.3184
   77HFI     F1 1405   2.612   2.767   3.423  0.2764 -0.4358  0.3881
   77HFI     F2 1406   2.501   2.685   3.252  0.0786  0.1971  0.2307
   77HFI     F3 1407   2.462   2.888   3.316 -0.3511 -0.3154  0.2199
   77HFI     C3 1408   2.620   2.919   3.088 -0.9129 -0.2508  0.3369
   77HFI     F4 1409   2.708   2.938   2.997 -0.1180 -0.3167  0.4738
   77HFI     F5 1410   2.579   3.037   3.129 -0.5672  0.0853 -0.2983
   77HFI     F6 1411   2.516   2.861   3.029 -0.7134 -0.0175 -0.0397
   77HFI     H1 1412   2.682   2.645   3.131  0.0181 -0.3225  0.8054
   77HFI     H2 1413   2.744   2.891   3.270  1.0863 -4.1458  2.6257
   78HFI     O1 1414   2.190   2.858   1.070 -0.4826  0.1037 -0.3637
   78HFI     C1 1415   2.060   2.929   1.041  0.1669  0.3572 -0.4428
   78HFI     C2 1416   2.031   2.924   0.883 -0.9499  0.1981 -0.0961
   78HFI     F1 1417   1.926   3.008   0.846  0.1617  0.7295 -0.3037
   78HFI     F2 1418   2.000   2.797   0.844  0.1698  0.1456 -0.8045
   78HFI     F3 1419   2.141   2.952   0.810 -0.0023  0.5377  0.3089
   78HFI     C3 1420   2.043   3.070   1.111 -0.2082 -0.2051 -0.5576
   78HFI     F4 1421   1.910   3.105   1.134  0.2687  0.0480 -0.0745
   78HFI     F5 1422   2.099   3.166   1.039  0.1849 -0.3838  0.4285
   78HFI     F6 1423   2.106   3.070   1.225 -0.3293  0.5477 -0.2535
   78HFI     H1 1424   2.220   2.879   1.160  2.0735  1.4161 -1.4637
   78HFI     H2 1425   1.973   2.883   1.090 -1.0205  0.9653 -1.9565
   79HFI     O1 1426   2.674   0.531   1.137  0.2404  0.9163  0.0149
   79HFI     C1 1427   2.737   0.585   1.018  0.1824 -0.2138  0.3542
   79HFI     C2 1428   2.890   0.550   1.011  0.0274 -0.2057  1.1872
   79HFI     F1 1429   2.943   0.579   0.884 -0.4134 -0.5939  0.2559
   79HFI     F2 1430   2.907   0.419   1.020 -0.6739  0.8276  0.0352
   79HFI     F3 1431   2.966   0.609   1.106  0.8905 -0.0663  0.2274
   79HFI     C3 1432   2.703   0.739   1.008 -0.0773 -0.7190  0.8672
   79HFI     F4 1433   2.724   0.783   0.885 -0.1088  0.4920  0.2240
   79HFI     F5 1434   2.784   0.816   1.086  0.1810 -0.0856 -0.3518
   79HFI     F6 1435   2.570   0.766   1.040  0.5531 -0.2364 -0.1414
   79HFI     H1 1436   2.587   0.572   1.151 -0.2136 -0.7229  2.4037
   79HFI     H2 1437   2.685   0.545   0.930  0.3541 -2.8650  1.3875
   80HFI     O1 1438   2.306   2.121   1.295 -0.0560 -0.1472  0.0194
   80HFI     C1 1439   2.189   2.093   1.380  0.0380 -0.2545 -0.5450
   80HFI     C2 1440   2.232   2.128   1.525 -0.6364 -0.1829 -0.0139
   80HFI     F1 1441   2.285   2.247   1.543 -0.5455 -0.3919  0.4392
   80HFI     F2 1442   2.327   2.039   1.559  0.1201 -0.2603 -0.4719
   80HFI     F3 1443   2.124   2.115   1.604 -0.1935  0.5241  0.3869
   80HFI     C3 1444   2.128   1.952   1.353 -0.1642 -1.1325  1.0559
   80HFI     F4 1445   2.029   1.924   1.432 -0.6771 -0.1011  0.0063
   80HFI     F5 1446   2.221   1.857   1.361  0.0192 -0.0033 -0.0795
   80HFI     F6 1447   2.080   1.933   1.225 -0.6448 -0.5691 -0.5842
   80HFI     H1 1448   2.369   2.179   1.341 -0.0148  0.2357 -0.5041
   80HFI     H2 1449   2.116   2.167   1.343 -2.6968 -3.2724 -1.4597
   81HFI     O1 1450   2.475   2.732   1.011 -0.4362 -0.0519  0.3090
   81HFI     C1 1451   2.492   2.606   0.941 -0.1355  0.5250  0.3930
   81HFI     C2 1452   2.373   2.585   0.836 -0.1152 -0.3933 -0.4915
   81HFI     F1 1453   2.374   2.465   0.777 -0.1825 -0.3416  0.2522
   81HFI     F2 1454   2.362   2.679   0.742 -0.3586 -0.6282 -0.0363
   81HFI     F3 1455   2.257   2.593   0.905 -0.5620  0.5393  0.1793
   81HFI     C3 1456   2.517   2.491   1.046 -0.0131  0.0414  0.3797
   81HFI     F4 1457   2.547   2.374   0.979 -0.1864  0.5275 -0.3448
   81HFI     F5 1458   2.408   2.471   1.124  0.3557 -0.2890  0.3366
   81HFI     F6 1459   2.616   2.525   1.129  0.4041  0.2063  0.3900
   81HFI     H1 1460   2.383   2.733   1.043 -0.2476 -0.4977  0.8764
   81HFI     H2 1461   2.579   2.608   0.875  0.5168 -1.4389  1.1558
   82HFI     O1 1462   1.691   3.255   0.408 -0.2530  0.0834 -0.2046
   82HFI     C1 1463   1.693   3.147   0.504 -0.3976 -0.3727  0.8228
   82HFI     C2 1464   1.617   3.031   0.438  0.0308 -0.0366 -0.5824
   82HFI     F1 1465   1.677   3.001   0.321  0.1524  0.3616 -0.6482
   82HFI     F2 1466   1.489   3.070   0.416  0.2561 -0.2139  0.0527
   82HFI     F3 1467   1.608   2.924   0.518  0.0755 -0.1236 -0.4078
   82HFI     C3 1468   1.645   3.190   0.643 -1.3316  0.4757 -0.2947
   82HFI     F4 1469   1.524   3.237   0.653  0.5345  0.5570 -0.3602
   82HFI     F5 1470   1.735   3.282   0.685  0.0084  0.0620  0.2579
   82HFI     F6 1471   1.658   3.084   0.732 -0.3550 -0.3458 -0.0525
   82HFI     H1 1472   1.603   3.256   0.367  0.2583  2.8933 -1.3318
   82HFI     H2 1473   1.789   3.099   0.524 -0.0156  0.3555  0.7694
   83HFI     O1 1474   1.321   2.307   0.569  0.1177  0.4446  0.3388
   83HFI     C1 1475   1.404   2.382   0.475 -0.6959 -0.0677 -0.3530
   83HFI     C2 1476   1.465   2.277   0.382  0.1702  0.1296  0.0613
   83HFI     F1 1477   1.362   2.217   0.315 -0.2159  0.0517  0.3574
   83HFI     F2 1478   1.535   2.174   0.449 -0.2721 -0.6645 -0.0604
   83HFI     F3 1479   1.541   2.337   0.285 -0.2649 -0.1749  0.6949
   83HFI     C3 1480   1.520   2.483   0.534 -0.6232 -0.0266 -0.4033
   83HFI     F4 1481   1.632   2.430   0.578 -0.6103 -0.3582 -0.3475
   83HFI     F5 1482   1.464   2.544   0.639  0.5868 -0.1683 -0.0831
   83HFI     F6 1483   1.552   2.578   0.452  0.1121  0.0991  0.5659
   83HFI     H1 1484   1.260   2.370   0.612 -1.3112  0.0697 -1.0668
   83HFI     H2 1485   1.334   2.436   0.411  0.4727 -1.4377 -2.8448
   84HFI     O1 1486   0.606   0.963   2.785  0.5520 -0.4464  0.5695
   84HFI     C1 1487   0.486   0.969   2.853 -0.1900  0.6163 -0.7068
   84HFI     C2 1488   0.417   1.100   2.831  0.3083 -0.4217  0.5357
   84HFI     F1 1489   0.421   1.127   2.704 -0.0333 -0.3206 -0.6413
   84HFI     F2 1490   0.475   1.193   2.907 -0.5609 -0.3156  0.3663
   84HFI     F3 1491   0.289   1.103   2.870 -0.5099  0.0718  0.0661
   84HFI     C3 1492   0.506   0.914   3.002  0.8095 -0.3538  0.1314
   84HFI     F4 1493   0.506   0.779   3.001 -0.0577  0.1294 -0.1186
   84HFI     F5 1494   0.416   0.960   3.091 -0.3959 -0.3058 -0.1436
   84HFI     F6 1495   0.627   0.957   3.047 -0.5606  0.2161 -0.0812
   84HFI     H1 1496   0.680   0.928   2.839  1.1345 -1.5473 -0.8946
   84HFI     H2 1497   0.420   0.892   2.811 -0.3864  0.0669  0.5662
   85HFI     O1 1498   1.977   2.444   0.855 -0.3777 -0.0810 -0.1188
   85HFI     C1 1499   1.981   2.299   0.884 -0.3357 -0.1936 -0.1120
   85HFI     C2 1500   2.075   2.265   1.004 -0.0015 -0.9546  0.7195
   85HFI     F1 1501   2.098   2.132   1.019  0.2790  0.2619  0.1006
   85HFI     F2 1502   2.023   2.311   1.118 -0.6520  0.1677 -0.2795
   85HFI     F3 1503   2.197   2.325   0.984 -0.1678  0.3664  0.1077
   85HFI     C3 1504   2.014   2.218   0.759 -0.2251  0.3200  0.4315
   85HFI     F4 1505   1.945   2.256   0.651  0.3712  0.2665 -0.0360
   85HFI     F5 1506   1.978   2.093   0.779  0.1865  0.1774 -0.5817
   85HFI     F6 1507   2.149   2.225   0.733  0.3580 -0.0809  0.4169
   85HFI     H1 1508   2.064   2.483   0.873  0.2847 -1.0017 -1.2249
   85HFI     H2 1509   1.881   2.267   0.916  0.5868 -2.2344  0.7608
   86HFI     O1 1510   1.865   3.356   1.313 -0.0395 -0.6720 -0.7040
   86HFI     C1 1511   1.794   3.325   1.440 -0.3551  0.2874  0.1810
   86HFI     C2 1512   1.652   3.259   1.408  0.2800  0.1388  0.7536
   86HFI     F1 1513   1.592   3.196   1.512  0.6975 -0.5560  0.4795
   86HFI     F2 1514   1.654   3.163   1.312  0.0090  0.2812  0.1239
   86HFI     F3 1515   1.568   3.355   1.362  0.3762  0.2154 -0.5349
   86HFI     C3 1516   1.778   3.447   1.525  0.4189  0.2378 -0.4513
   86HFI     F4 1517   1.900   3.468   1.585 -0.2676 -0.0165 -0.4165
   86HFI     F5 1518   1.675   3.436   1.612 -0.1306 -0.2996 -0.1667
   86HFI     F6 1519   1.751   3.557   1.448 -0.1507  0.3307 -0.0147
   86HFI     H1 1520   1.819   3.436   1.283 -0.0563 -0.5691 -0.4009
   86HFI     H2 1521   1.862   3.262   1.498 -0.3051  1.1004  1.0263
   87HFI     O1 1522   1.761   2.071   3.689  0.3537  0.0412 -0.8743
   87HFI     C1 1523   1.813   2.139   3.809 -0.3472 -0.5639 -0.7719
   87HFI     C2 1524   1.956   2.196   3.792 -0.0442 -0.2217 -0.4272
   87HFI     F1 1525   2.040   2.087   3.794  0.1921  0.5241  0.2839
   87HFI     F2 1526   1.985   2.284   3.890 -0.0693  0.1758  0.1414
   87HFI     F3 1527   1.983   2.258   3.679  0.1608 -0.1387  0.4266
   87HFI     C3 1528   1.795   2.049   3.940 -0.0875 -0.0689 -0.3920
   87HFI     F4 1529   1.880   1.941   3.945 -0.1311 -0.1743  0.3889
   87HFI     F5 1530   1.673   2.002   3.957  0.0861  0.3633 -0.1191
   87HFI     F6 1531   1.822   2.113   4.057  0.0507  0.0734  0.1765
   87HFI     H1 1532   1.803   2.100   3.607 -2.8380 -0.9276 -2.9680
   87HFI     H2 1533   1.749   2.225   3.831  1.1469  0.3271  0.2241
   88HFI     O1 1534   1.401   1.753   0.273 -0.3409  0.0315  0.1810
   88HFI     C1 1535   1.421   1.777   0.416  0.1325 -0.9505 -0.7647
   88HFI     C2 1536   1.569   1.791   0.460  0.4955  0.4009  0.2291
   88HFI     F1 1537   1.634   1.869   0.378  0.0322 -0.4077 -0.1621
   88HFI     F2 1538   1.630   1.671   0.474 -0.0367  0.0351 -0.3070
   88HFI     F3 1539   1.583   1.852   0.585  0.2108 -0.0004  0.0833
   88HFI     C3 1540   1.343   1.670   0.497 -0.3681 -1.0270 -0.2628
   88HFI     F4 1541   1.366   1.687   0.631  0.1855 -0.2173  0.3554
   88HFI     F5 1542   1.381   1.541   0.473 -0.1256  0.4374  0.3898
   88HFI     F6 1543   1.212   1.689   0.478  0.4488  0.2524 -0.4259
   88HFI     H1 1544   1.445   1.669   0.253 -2.6645 -1.5321  1.3987
   88HFI     H2 1545   1.369   1.872   0.431  3.3744  0.9197 -0.9422
   89HFI     O1 1546   0.388   1.673   3.740  0.2758 -0.0035 -0.1403
   89HFI     C1 1547   0.253   1.673   3.690 -0.3756 -1.3265 -0.1722
   89HFI     C2 1548   0.163   1.553   3.733 -0.0920  1.0374  0.9064
   89HFI     F1 1549   0.169   1.456   3.641 -0.0240 -0.5426 -0.2585
   89HFI     F2 1550   0.030   1.584   3.742 -0.2184  0.4117 -0.4332
   89HFI     F3 1551   0.204   1.500   3.852  0.4279  0.4659 -0.2005
   89HFI     C3 1552   0.243   1.702   3.537  0.3685 -0.2423  0.5974
   89HFI     F4 1553   0.317   1.609   3.458 -0.1887 -0.7042 -0.4618
   89HFI     F5 1554   0.297   1.822   3.501 -0.0436  0.5720 -0.0502
   89HFI     F6 1555   0.117   1.703   3.494 -0.3441  0.1079 -0.4238
   89HFI     H1 1556   0.405   1.602   3.804 -0.6274 -1.1720 -1.1693
   89HFI     H2 1557   0.201   1.752   3.745 -0.4186 -1.9679  0.7184
   90HFI     O1 1558   1.918   2.785   0.546  0.2060 -0.0048  0.0240
   90HFI     C1 1559   1.891   2.707   0.434  0.0880 -0.1464 -0.0238
   90HFI     C2 1560   1.917   2.560   0.473 -0.1899 -0.8159  0.3524
   90HFI     F1 1561   1.861   2.476   0.385 -0.4150  0.0241  0.3510
   90HFI     F2 1562   1.874   2.534   0.596 -0.0682 -0.2588 -0.2789
   90HFI     F3 1563   2.049   2.532   0.474 -0.1148  0.0030  0.5976
   90HFI     C3 1564   1.969   2.753   0.304 -0.1578  0.2251  0.2420
   90HFI     F4 1565   1.931   2.678   0.201 -0.2604 -0.4608  0.0203
   90HFI     F5 1566   2.100   2.745   0.325 -0.3777  0.1393 -0.2223
   90HFI     F6 1567   1.948   2.880   0.261 -0.4201 -0.0622 -0.0842
   90HFI     H1 1568   1.962   2.735   0.616 -0.2216 -1.5437 -0.7790
   90HFI     H2 1569   1.783   2.706   0.417  0.5013 -1.1961 -2.8882
   91HFI     O1 1570   1.418   0.875   2.668  0.1923  0.2545  0.3327
   91HFI     C1 1571   1.473   0.922   2.544 -0.2055 -0.6330 -0.0479
   91HFI     C2 1572   1.628   0.894   2.536 -0.4950 -0.2867 -0.5656
   91HFI     F1 1573   1.657   0.767   2.572 -0.5028 -0.1798 -0.2373
   91HFI     F2 1574   1.703   0.976   2.613  0.2483  0.1416  0.0023
   91HFI     F3 1575   1.665   0.901   2.408  0.0137 -0.4049  0.2661
   91HFI     C3 1576   1.431   1.065   2.509 -1.5446  0.2740 -0.0845
   91HFI     F4 1577   1.492   1.156   2.589  0.1429  0.0262 -0.0788
   91HFI     F5 1578   1.297   1.070   2.532  0.1876  0.6406  0.9253
   91HFI     F6 1579   1.457   1.101   2.380 -0.1317  0.7254  0.9239
   91HFI     H1 1580   1.439   0.939   2.739  0.8435 -0.1876  0.5469
   91HFI     H2 1581   1.429   0.852   2.471 -0.0946 -3.1857  2.2571
   92HFI     O1 1582   1.070   1.030   1.514  0.5956 -0.6687  0.2026
   92HFI     C1 1583   1.033   1.129   1.420  0.0518  0.5419 -0.5038
   92HFI     C2 1584   1.059   1.273   1.477 -0.4478 -0.1165  0.6483
   92HFI     F1 1585   0.993   1.294   1.593 -0.0977 -0.3562 -0.0720
   92HFI     F2 1586   1.029   1.372   1.392 -0.1848  0.4823 -0.1360
   92HFI     F3 1587   1.186   1.278   1.499 -0.4760 -0.2015  0.2489
   92HFI     C3 1588   0.885   1.085   1.389  0.1922  0.0925  0.8145
   92HFI     F4 1589   0.814   1.071   1.505  0.0650 -0.0232  0.1220
   92HFI     F5 1590   0.871   0.971   1.324 -0.2412 -0.5690 -0.3880
   92HFI     F6 1591   0.830   1.183   1.315 -0.2148 -0.1945 -0.2746
   92HFI     H1 1592   1.132   1.069   1.578  0.6112  0.2064 -0.3290
   92HFI     H2 1593   1.094   1.115   1.330  0.2384 -1.3027 -0.1098
   93HFI     O1 1594   3.003   1.770   0.408 -0.6410  0.0465 -0.3646
   93HFI     C1 1595   3.077   1.688   0.497 -0.4680  0.5996  0.7756
   93HFI     C2 1596   3.220   1.703   0.455 -0.3316 -0.7590  0.3404
   93HFI     F1 1597   3.239   1.659   0.331 -0.1243  0.1778 -0.0745
   93HFI     F2 1598   3.315   1.637   0.533  0.3969  0.2921  0.0517
   93HFI     F3 1599   3.255   1.835   0.451  0.1168 -0.0759 -0.1282
   93HFI     C3 1600   3.026   1.542   0.489  0.0654 -0.3637 -0.9825
   93HFI     F4 1601   3.011   1.496   0.359 -0.2361  0.2147 -0.5771
   93HFI     F5 1602   2.905   1.544   0.551 -1.0828  0.0980 -0.1578
   93HFI     F6 1603   3.099   1.450   0.551  0.0826 -0.4083  0.0584
   93HFI     H1 1604   2.908   1.751   0.419 -1.2460  2.8594 -0.3729
   93HFI     H2 1605   3.074   1.724   0.601  2.4745 -0.4532  1.2826
   94HFI     O1 1606   3.246   1.103   0.258 -0.7800  0.7134 -0.1330
   94HFI     C1 1607   3.312   1.198   0.344 -0.2419 -0.1231 -0.2636
   94HFI     C2 1608   3.422   1.271   0.256 -0.6514 -0.2750 -0.2516
   94HFI     F1 1609   3.452   1.392   0.317 -0.5307  0.2328 -0.3859
   94HFI     F2 1610   3.376   1.294   0.136  0.5002  0.1097  0.1380
   94HFI     F3 1611   3.529   1.193   0.243 -0.3882 -0.0550  0.0056
   94HFI     C3 1612   3.368   1.133   0.473  0.4672  0.7773 -0.1681
   94HFI     F4 1613   3.420   1.010   0.445  0.3699  0.2065 -0.4623
   94HFI     F5 1614   3.271   1.105   0.561  0.5738 -0.0629  0.4138
   94HFI     F6 1615   3.456   1.208   0.538  0.8259 -0.9077  0.1564
   94HFI     H1 1616   3.290   1.016   0.251 -1.1211  0.5335 -0.0834
   94HFI     H2 1617   3.240   1.274   0.377  2.7413  2.7660 -0.0382
   95HFI     O1 1618   1.002   0.863   0.239  0.1087  0.0112 -0.3095
   95HFI     C1 1619   0.885   0.928   0.179  0.0665 -0.5537 -0.4281
   95HFI     C2 1620   0.768   0.935   0.268  0.1426 -0.1131  0.9834
   95HFI     F1 1621   0.679   1.023   0.226 -0.3455  0.0090 -0.1783
   95HFI     F2 1622   0.798   0.981   0.390  0.0885 -0.5214  0.0660
   95HFI     F3 1623   0.697   0.816   0.282  0.3167  0.3197  0.0487
   95HFI     C3 1624   0.855   0.866   0.039 -0.0856 -0.1862  0.2433
   95HFI     F4 1625   0.768   0.942  -0.028  0.2749  0.4847 -0.1112
   95HFI     F5 1626   0.799   0.739   0.047  0.0408  0.1527 -0.2865
   95HFI     F6 1627   0.966   0.860  -0.036  0.3787 -0.4387  0.2929
   95HFI     H1 1628   1.073   0.858   0.174 -0.3494  0.7599 -0.8681
   95HFI     H2 1629   0.920   1.029   0.153 -0.3112 -0.2112  0.3578
   96HFI     O1 1630   2.729   2.677   3.684 -0.3505 -0.3488 -0.1869
   96HFI     C1 1631   2.765   2.609   3.808 -0.0851 -0.2728 -0.2120
   96HFI     C2 1632   2.880   2.682   3.877 -0.3487 -0.2170  0.3810
   96HFI     F1 1633   2.976   2.710   3.784  0.4854  0.2962  0.2972
   96HFI     F2 1634   2.935   2.615   3.979 -0.1504  0.0439 -0.0578
   96HFI     F3 1635   2.830   2.804   3.918 -0.7079  0.4529  0.5153
   96HFI     C3 1636   2.796   2.450   3.785 -0.0883 -0.9188 -0.3172
   96HFI     F4 1637   2.821   2.384   3.901 -0.2164 -0.1745  0.0675
   96HFI     F5 1638   2.901   2.443   3.700 -0.1155 -0.0183  0.5136
   96HFI     F6 1639   2.688   2.389   3.727  0.7839 -0.2226  0.1692
   96HFI     H1 1640   2.809   2.713   3.641 -2.1117  3.4505 -0.5112
   96HFI     H2 1641   2.673   2.599   3.867  0.2525 -2.2805  0.0191
   97HFI     O1 1642   2.271   2.838   1.325 -0.4933 -0.0230  0.3522
   97HFI     C1 1643   2.269   2.703   1.397 -0.9940 -0.1172  0.6007
   97HFI     C2 1644   2.158   2.601   1.344 -0.3672 -0.4539  0.1323
   97HFI     F1 1645   2.036   2.617   1.399 -0.4985 -0.2701 -0.2858
   97HFI     F2 1646   2.190   2.469   1.381 -0.0021 -0.1394  0.3812
   97HFI     F3 1647   2.148   2.599   1.214 -0.2480  0.6563  0.1114
   97HFI     C3 1648   2.281   2.708   1.549  0.4425 -1.1354  0.3055
   97HFI     F4 1649   2.298   2.581   1.607  0.4301 -0.2432 -0.0946
   97HFI     F5 1650   2.174   2.778   1.604 -0.5045  0.0842 -0.4458
   97HFI     F6 1651   2.389   2.773   1.591  0.0808 -0.0542  0.7040
   97HFI     H1 1652   2.320   2.901   1.381 -0.4150 -0.5258  0.8478
   97HFI     H2 1653   2.357   2.645   1.365  0.7200  2.1533  1.0694
   98HFI     O1 1654   1.323   1.045   0.205  0.1347  0.0658  0.0008
   98HFI     C1 1655   1.353   1.187   0.186 -0.0051 -0.1487 -0.2200
   98HFI     C2 1656   1.466   1.232   0.276  0.1068 -0.0805 -0.2648
   98HFI     F1 1657   1.581   1.181   0.235 -0.3271 -0.2472  0.9617
   98HFI     F2 1658   1.450   1.186   0.405  0.4837 -0.1814  0.6341
   98HFI     F3 1659   1.486   1.365   0.264 -0.0533  0.2134  0.5030
   98HFI     C3 1660   1.222   1.259   0.211  0.8429 -0.5356 -0.1930
   98HFI     F4 1661   1.228   1.392   0.211 -0.0377  0.2218 -0.0682
   98HFI     F5 1662   1.169   1.220   0.327  0.6006 -0.5286 -0.2827
   98HFI     F6 1663   1.131   1.223   0.117  0.2603  0.2001 -0.5275
   98HFI     H1 1664   1.399   1.006   0.250  1.2686  0.4658 -1.4918
   98HFI     H2 1665   1.391   1.200   0.084 -1.4459 -1.8580 -1.0045
   99HFI     O1 1666   1.252   2.146   0.018 -0.7982 -0.1881  0.1769
   99HFI     C1 1667   1.309   2.217  -0.102 -0.1468  0.7404 -0.7501
   99HFI     C2 1668   1.214   2.324  -0.155 -0.4252 -0.0085  0.4730
   99HFI     F1 1669   1.153   2.379  -0.053 -0.6153 -0.6483 -0.1767
   99HFI     F2 1670   1.123   2.279  -0.248  0.1931  0.0763 -0.4726
   99HFI     F3 1671   1.300   2.415  -0.210 -0.1558 -0.1712  0.2510
   99HFI     C3 1672   1.352   2.115  -0.214  0.3659  0.0540 -0.1320
   99HFI     F4 1673   1.364   2.179  -0.334 -0.2754  0.3438 -0.1145
   99HFI     F5 1674   1.249   2.037  -0.225  0.0774 -0.1855 -0.3452
   99HFI     F6 1675   1.461   2.045  -0.181 -0.5934 -0.2704 -0.3395
   99HFI     H1 1676   1.314   2.080   0.052  0.7181  2.0936  1.9527
   99HFI     H2 1677   1.393   2.277  -0.065  0.0825 -1.8129  3.1011
  100HFI     O1 1678   0.550   1.108   1.604  0.3708  0.4295 -0.3453
  100HFI     C1 1679   0.425   1.081   1.543  0.0242 -0.4681  0.2744
  100HFI     C2 1680   0.463   1.002   1.418  0.3499  0.3851  0.1414
  100HFI     F1 1681   0.556   1.066   1.336  0.0097  0.4128 -0.0218
  100HFI     F2 1682   0.354   0.979   1.341  0.3618  0.4084 -0.3401
  100HFI     F3 1683   0.531   0.887   1.461 -0.0269 -0.1453 -0.3018
  100HFI     C3 1684   0.334   1.197   1.500 -0.6270  0.2676 -0.4193
  100HFI     F4 1685   0.212   1.143   1.478  0.1954  0.0573  0.4067
  100HFI     F5 1686   0.375   1.255   1.387 -0.0346  0.3796  0.4626
  100HFI     F6 1687   0.314   1.283   1.600 -0.3592 -0.4566  0.4890
  100HFI     H1 1688   0.614   1.044   1.567 -0.9513 -1.4892  0.5897
  100HFI     H2 1689   0.363   1.025   1.614 -0.0717  0.6757  1.1003
  101HFI     O1 1690   0.024   0.523   2.285 -0.2785  0.3529 -0.3066
  101HFI     C1 1691  -0.089   0.428   2.263  0.7322 -0.2892  0.6685
  101HFI     C2 1692  -0.222   0.485   2.326  0.2138  0.3771  0.4331
  101HFI     F1 1693  -0.242   0.609   2.277  0.3716  0.1200 -0.1666
  101HFI     F2 1694  -0.218   0.510   2.459  0.2223 -0.2275 -0.4945
  101HFI     F3 1695  -0.332   0.404   2.305  0.1071  0.1030  0.7008
  101HFI     C3 1696  -0.057   0.283   2.312  0.7796 -0.4012  0.2256
  101HFI     F4 1697  -0.062   0.283   2.449 -0.1409 -0.5819 -0.1354
  101HFI     F5 1698   0.070   0.237   2.278  0.3546  0.0954 -0.0742
  101HFI     F6 1699  -0.144   0.189   2.258  0.8107  0.2117  0.4193
  101HFI     H1 1700   0.105   0.469   2.289 -1.0743 -0.9331 -1.1787
  101HFI     H2 1701  -0.116   0.429   2.157  0.9396 -1.9550  0.5857
  102HFI     O1 1702   0.664   0.481   0.623  0.5544 -0.4364 -0.2231
  102HFI     C1 1703   0.752   0.402   0.537 -0.2865 -0.2446 -0.4403
  102HFI     C2 1704   0.794   0.473   0.408  0.4093  0.6088 -0.4968
  102HFI     F1 1705   0.902   0.424   0.349  1.1521 -0.4770 -0.7111
  102HFI     F2 1706   0.836   0.601   0.435  0.4661 -0.1721 -0.0641
  102HFI     F3 1707   0.691   0.479   0.316 -0.4373 -0.2134 -0.0792
  102HFI     C3 1708   0.697   0.257   0.499  0.8498 -0.3215  0.2845
  102HFI     F4 1709   0.782   0.177   0.437 -0.1490  0.2247  0.1516
  102HFI     F5 1710   0.593   0.265   0.412 -0.3829 -0.2304  0.1805
  102HFI     F6 1711   0.656   0.192   0.613 -0.1651  0.3392  0.0997
  102HFI     H1 1712   0.588   0.429   0.654  0.7351 -0.3536  0.3674
  102HFI     H2 1713   0.842   0.374   0.593 -0.0270  2.2191  0.4479
  103HFI     O1 1714   1.559   0.060   0.821 -0.3654 -0.0542  0.2447
  103HFI     C1 1715   1.484   0.063   0.943  0.2729 -0.0761  0.5371
  103HFI     C2 1716   1.527   0.175   1.046 -1.1465 -0.0841 -0.0948
  103HFI     F1 1717   1.417   0.220   1.111  0.3822  0.0059 -0.1207
  103HFI     F2 1718   1.582   0.279   0.976 -0.3102  0.6617 -0.1330
  103HFI     F3 1719   1.622   0.126   1.137 -0.7544 -0.0059 -0.0869
  103HFI     C3 1720   1.481  -0.077   1.018  0.0702  0.1267  0.3812
  103HFI     F4 1721   1.431  -0.175   0.936 -0.2767 -0.5712  0.5002
  103HFI     F5 1722   1.416  -0.065   1.133 -0.0330  0.3831  0.0191
  103HFI     F6 1723   1.602  -0.125   1.057 -0.0891 -1.0286 -0.6671
  103HFI     H1 1724   1.648   0.092   0.843 -1.2278  2.3884  0.2700
  103HFI     H2 1725   1.381   0.084   0.914  0.0792 -2.2871 -0.4742
  104HFI     O1 1726   1.234   3.239   3.777  0.5633 -0.1881 -0.0628
  104HFI     C1 1727   1.371   3.251   3.808 -1.0309  0.4584  0.2674
  104HFI     C2 1728   1.436   3.107   3.818 -0.3888  0.5917 -0.1901
  104HFI     F1 1729   1.378   3.040   3.919  0.1174  0.0758  0.0370
  104HFI     F2 1730   1.573   3.111   3.833 -0.0125  0.1851  0.0229
  104HFI     F3 1731   1.414   3.033   3.706 -0.0087  0.0247  0.5920
  104HFI     C3 1732   1.406   3.354   3.924 -0.3326  0.1004  0.1866
  104HFI     F4 1733   1.412   3.289   4.039 -0.2672  0.3371  0.1344
  104HFI     F5 1734   1.315   3.447   3.930  0.3773 -0.6470 -0.4534
  104HFI     F6 1735   1.524   3.414   3.908  0.1810  0.2155  0.1794
  104HFI     H1 1736   1.180   3.310   3.815 -0.2961 -1.9273  2.0460
  104HFI     H2 1737   1.413   3.303   3.720 -1.2979 -0.2683 -0.2955
  105HFI     O1 1738   1.888   3.417   0.977  0.0840 -0.1649  0.0899
  105HFI     C1 1739   2.003   3.500   0.939  0.0283  0.2842  0.4508
  105HFI     C2 1740   1.973   3.646   0.961 -0.7873 -0.3713 -0.8564
  105HFI     F1 1741   2.077   3.723   0.954 -0.6046 -0.6625 -0.2205
  105HFI     F2 1742   1.929   3.654   1.090  0.1501  0.0138  0.3105
  105HFI     F3 1743   1.873   3.694   0.886  0.3925 -0.2754 -0.1047
  105HFI     C3 1744   2.060   3.469   0.795 -0.2616  0.8271 -0.4671
  105HFI     F4 1745   2.085   3.333   0.784  0.4002 -0.4501  0.3550
  105HFI     F5 1746   2.179   3.535   0.768 -0.0474 -0.0789  0.0187
  105HFI     F6 1747   1.968   3.494   0.701 -0.4154 -0.6533  0.0631
  105HFI     H1 1748   1.920   3.327   0.998 -0.0265 -0.6855 -1.9129
  105HFI     H2 1749   2.088   3.488   1.008  1.5075 -0.2632 -1.4347
  106HFI     O1 1750   3.087   1.180   1.343  0.0630  0.0173  0.4496
  106HFI     C1 1751   3.103   1.036   1.380 -0.2406 -0.1559 -0.6399
  106HFI     C2 1752   3.013   0.937   1.305  0.0615 -0.7853  0.2670
  106HFI     F1 1753   3.045   0.809   1.321  0.0943 -0.0083 -0.2282
  106HFI     F2 1754   3.030   0.960   1.177  0.3324  0.1246  0.9263
  106HFI     F3 1755   2.883   0.942   1.341 -0.2851 -0.2862  0.0516
  106HFI     C3 1756   3.091   1.026   1.533  0.5364 -0.4034  0.4916
  106HFI     F4 1757   2.960   1.043   1.582  0.3012  0.2806 -0.0110
  106HFI     F5 1758   3.168   1.123   1.586  0.2978  0.5029  0.4015
  106HFI     F6 1759   3.131   0.909   1.582  0.2185  0.3902  0.2808
  106HFI     H1 1760   3.113   1.235   1.418 -0.2766  0.7182  0.0590
  106HFI     H2 1761   3.205   0.998   1.374  0.4287  1.5804 -0.6753
  107HFI     O1 1762   3.075   0.178   1.301  0.0086  0.0061 -0.0956
  107HFI     C1 1763   3.079   0.035   1.346 -0.2083  0.1615 -0.2963
  107HFI     C2 1764   2.963  -0.052   1.291 -0.1437  0.0644 -0.2592
  107HFI     F1 1765   2.962  -0.033   1.159  0.8194 -0.4288  0.2869
  107HFI     F2 1766   2.848  -0.006   1.328  0.5203 -0.1470  0.4804
  107HFI     F3 1767   2.983  -0.182   1.320  0.2845 -0.6769  0.1453
  107HFI     C3 1768   3.098   0.022   1.505  0.2728 -0.0585  0.8335
  107HFI     F4 1769   2.980   0.055   1.562  0.1096 -0.1745 -0.2633
  107HFI     F5 1770   3.189   0.106   1.545  0.0589 -0.0387  0.0434
  107HFI     F6 1771   3.130  -0.103   1.536  0.3072 -0.2262 -0.1288
  107HFI     H1 1772   2.989   0.218   1.322  0.0465  0.2336 -0.3700
  107HFI     H2 1773   3.170  -0.014   1.310 -1.2043 -1.5215 -0.5739
  108HFI     O1 1774   2.617   2.089   0.473 -0.5071 -0.3015 -0.1591
  108HFI     C1 1775   2.509   2.162   0.415 -0.3094  0.0505 -0.5099
  108HFI     C2 1776   2.506   2.142   0.263  0.1239  0.0044 -0.0341
  108HFI     F1 1777   2.503   2.007   0.237  0.7846 -0.1717 -0.3339
  108HFI     F2 1778   2.613   2.195   0.201 -0.1044 -0.8671  0.3017
  108HFI     F3 1779   2.392   2.193   0.205  0.4353 -0.2192  0.3558
  108HFI     C3 1780   2.508   2.311   0.447  0.4497  0.4008  0.3110
  108HFI     F4 1781   2.612   2.369   0.400  0.3658  0.4241  0.3718
  108HFI     F5 1782   2.499   2.333   0.577 -0.1217 -0.1259 -0.0049
  108HFI     F6 1783   2.402   2.366   0.398  0.1963  0.2087  0.3374
  108HFI     H1 1784   2.682   2.080   0.402  0.1606 -0.1222  0.4249
  108HFI     H2 1785   2.412   2.125   0.449 -0.4133 -0.8541 -1.7603
  109HFI     O1 1786   2.650   0.218   3.752  0.3324 -0.1410 -0.0813
  109HFI     C1 1787   2.657   0.205   3.896  0.7353 -0.3017 -0.4380
  109HFI     C2 1788   2.717   0.067   3.935 -0.0990 -1.0416  0.6179
  109HFI     F1 1789   2.637  -0.032   3.895 -0.1090  0.0826  0.3349
  109HFI     F2 1790   2.738   0.062   4.065 -0.4826 -0.8726 -0.0519
  109HFI     F3 1791   2.843   0.058   3.883  0.5096 -0.4684  0.5388
  109HFI     C3 1792   2.523   0.233   3.965 -0.2612 -0.7460  0.0959
  109HFI     F4 1793   2.526   0.225   4.100  0.3860  0.6762 -0.1505
  109HFI     F5 1794   2.426   0.148   3.913  0.6203 -0.1679 -0.1732
  109HFI     F6 1795   2.490   0.358   3.930 -0.2998  0.0874 -0.1055
  109HFI     H1 1796   2.595   0.295   3.730  0.9273  0.1991 -0.3945
  109HFI     H2 1797   2.721   0.275   3.951  1.2666 -1.1178 -0.0018
  110HFI     O1 1798   0.372   1.180   3.738 -0.6757  0.1296  0.4299
  110HFI     C1 1799   0.514   1.212   3.753 -0.4866  0.1388 -0.4479
  110HFI     C2 1800   0.548   1.299   3.878  0.3709 -0.4334  0.5545
  110HFI     F1 1801   0.502   1.422   3.868  0.0198  0.6650  0.3686
  110HFI     F2 1802   0.682   1.297   3.906  0.2758 -0.0375  0.4094
  110HFI     F3 1803   0.472   1.250   3.977 -0.0017 -0.2660 -0.2833
  110HFI     C3 1804   0.556   1.278   3.618  0.5258  0.7612 -0.0511
  110HFI     F4 1805   0.553   1.189   3.516 -0.2099 -0.0689 -0.6032
  110HFI     F5 1806   0.686   1.327   3.628  0.2158 -0.4574 -0.2602
  110HFI     F6 1807   0.467   1.381   3.591 -0.0549  0.0789  0.3081
  110HFI     H1 1808   0.312   1.213   3.808  0.5393  1.3107  0.9427
  110HFI     H2 1809   0.572   1.120   3.760  0.4735  0.6808 -1.1299
  111HFI     O1 1810   1.421   0.119   1.578 -0.5172 -0.0671  0.2047
  111HFI     C1 1811   1.377   0.219   1.482 -0.2386  0.3550  0.1855
  111HFI     C2 1812   1.395   0.365   1.530 -0.3534 -0.4933  1.0637
  111HFI     F1 1813   1.289   0.410   1.596  0.2451  0.2101 -0.1978
  111HFI     F2 1814   1.408   0.439   1.422 -0.2626 -0.0462 -0.5158
  111HFI     F3 1815   1.513   0.375   1.604  0.0805 -0.3519 -0.1951
  111HFI     C3 1816   1.234   0.194   1.427  0.4356  0.1011  0.4567
  111HFI     F4 1817   1.234   0.095   1.332 -0.3273 -0.3879  0.8702
  111HFI     F5 1818   1.175   0.298   1.370 -0.2544  0.1092 -0.8174
  111HFI     F6 1819   1.155   0.150   1.526  0.3249 -0.3795  0.4730
  111HFI     H1 1820   1.349   0.083   1.631 -1.4424  2.4219  0.7382
  111HFI     H2 1821   1.437   0.211   1.391  0.8475 -2.1646  1.0638
  112HFI     O1 1822   3.365   2.744   0.215  0.1139  0.5575  0.9406
  112HFI     C1 1823   3.279   2.726   0.330 -0.0903  0.0099  0.8467
  112HFI     C2 1824   3.203   2.853   0.380  0.1925 -0.2664  0.6120
  112HFI     F1 1825   3.295   2.956   0.406 -0.4675 -0.6800 -0.3094
  112HFI     F2 1826   3.130   2.840   0.494 -0.5906  0.4402 -0.6505
  112HFI     F3 1827   3.115   2.891   0.283  0.6840 -0.2670  0.4738
  112HFI     C3 1828   3.377   2.661   0.438  0.0223  0.0237 -0.9619
  112HFI     F4 1829   3.484   2.742   0.461  0.1577  0.1940 -0.3333
  112HFI     F5 1830   3.413   2.535   0.398 -0.0329  0.3417  0.5274
  112HFI     F6 1831   3.322   2.641   0.556  0.4281  0.4076 -0.2174
  112HFI     H1 1832   3.449   2.700   0.237  0.3031  0.5160  0.1468
  112HFI     H2 1833   3.199   2.657   0.300 -0.4392  0.9205 -0.3394
  113HFI     O1 1834   1.625   2.287   1.611  0.5791 -0.1753 -0.4576
  113HFI     C1 1835   1.659   2.246   1.474  0.6013 -0.2510  0.2828
  113HFI     C2 1836   1.680   2.096   1.466 -0.0931  0.3473 -0.3240
  113HFI     F1 1837   1.793   2.058   1.532 -0.1912  0.1477  0.0736
  113HFI     F2 1838   1.684   2.053   1.338  0.3016  0.1983 -0.0601
  113HFI     F3 1839   1.575   2.037   1.526 -0.1424  0.3763 -0.7116
  113HFI     C3 1840   1.784   2.327   1.415 -0.6489 -0.3068 -0.5323
  113HFI     F4 1841   1.775   2.463   1.440 -0.0564  0.3046  0.1597
  113HFI     F5 1842   1.794   2.314   1.288  0.6194  0.0410  0.0958
  113HFI     F6 1843   1.904   2.295   1.465 -0.0285  0.1020 -0.2467
  113HFI     H1 1844   1.687   2.251   1.676 -2.1519  1.0481  2.9381
  113HFI     H2 1845   1.567   2.265   1.418  0.8032  1.4647  0.5071
  114HFI     O1 1846   0.852   2.059   2.224 -0.6428 -0.1173  0.1933
  114HFI     C1 1847   0.788   1.946   2.283 -0.1494  0.4372 -0.2348
  114HFI     C2 1848   0.638   1.971   2.322 -0.0974  0.1995 -0.2531
  114HFI     F1 1849   0.569   1.858   2.307 -0.3710  0.2347 -0.0839
  114HFI     F2 1850   0.580   2.063   2.240  0.1123  0.5403 -0.0285
  114HFI     F3 1851   0.623   2.025   2.448  0.5752 -0.2084 -0.0400
  114HFI     C3 1852   0.873   1.885   2.399 -0.3282  0.1993  0.3342
  114HFI     F4 1853   0.884   1.971   2.504 -0.0893 -0.2033  0.8673
  114HFI     F5 1854   0.995   1.854   2.350 -0.0414 -0.0036  0.4786
  114HFI     F6 1855   0.816   1.766   2.441  0.1785  0.8328 -0.0542
  114HFI     H1 1856   0.778   2.117   2.199  0.5310  1.1193 -0.4798
  114HFI     H2 1857   0.783   1.867   2.208 -2.5021 -0.4455  0.8003
  115HFI     O1 1858   1.119   1.387   0.902  0.0081  0.4886  0.2221
  115HFI     C1 1859   1.261   1.355   0.883 -0.1727 -0.4382 -0.1861
  115HFI     C2 1860   1.296   1.230   0.809 -0.3674  0.4370 -0.0454
  115HFI     F1 1861   1.326   1.126   0.896  0.4423 -0.1301  0.1964
  115HFI     F2 1862   1.399   1.250   0.734 -0.1363 -0.0421  0.4809
  115HFI     F3 1863   1.194   1.190   0.727 -0.4542  0.3191 -0.0778
  115HFI     C3 1864   1.332   1.374   1.020 -0.3348 -0.0223 -0.4300
  115HFI     F4 1865   1.337   1.498   1.062  0.3472  0.3016 -0.0494
  115HFI     F5 1866   1.457   1.335   1.014  0.1458 -0.2661  0.4296
  115HFI     F6 1867   1.273   1.311   1.124  0.3077  0.2155  0.3987
  115HFI     H1 1868   1.085   1.421   0.817 -1.1082 -0.8896  0.1016
  115HFI     H2 1869   1.301   1.440   0.828 -0.7707  0.6587  1.0492
  116HFI     O1 1870   1.899   1.840   0.623 -0.2917 -0.3744  0.0897
  116HFI     C1 1871   2.030   1.786   0.589  0.0386 -0.7029  0.2648
  116HFI     C2 1872   2.114   1.875   0.489  0.4714  0.1402 -0.5435
  116HFI     F1 1873   2.104   2.002   0.522 -0.7032 -0.0588 -0.2326
  116HFI     F2 1874   2.062   1.868   0.367  0.1604  0.2373 -0.2032
  116HFI     F3 1875   2.245   1.841   0.489  0.1226 -0.5160  0.0162
  116HFI     C3 1876   2.011   1.639   0.541  0.2737  0.0645 -0.2332
  116HFI     F4 1877   2.129   1.602   0.493  0.3942  0.4666 -0.4607
  116HFI     F5 1878   1.929   1.623   0.435 -0.3260 -0.0176 -0.1170
  116HFI     F6 1879   1.958   1.552   0.629 -0.2835 -0.3611 -0.7757
  116HFI     H1 1880   1.870   1.889   0.544  2.6444 -1.9057 -2.0486
  116HFI     H2 1881   2.091   1.776   0.679 -1.0047 -0.4735  1.0017
  117HFI     O1 1882   2.353   3.154   0.640  0.5489  0.1022  1.2776
  117HFI     C1 1883   2.324   3.166   0.497 -1.0171 -0.1549  0.2170
  117HFI     C2 1884   2.322   3.320   0.452  0.0555 -0.4499 -0.1460
  117HFI     F1 1885   2.423   3.389   0.509 -0.4745 -0.0010  0.5950
  117HFI     F2 1886   2.214   3.390   0.481  0.1452 -0.0340 -0.3881
  117HFI     F3 1887   2.343   3.333   0.323  0.3551 -0.1608 -0.0735
  117HFI     C3 1888   2.190   3.093   0.463 -0.1356 -0.3804  0.1431
  117HFI     F4 1889   2.085   3.139   0.535 -0.4688  0.0184  0.6457
  117HFI     F5 1890   2.194   2.962   0.492 -0.2692 -0.5621 -0.0794
  117HFI     F6 1891   2.154   3.092   0.330  0.3897 -0.0389 -0.2587
  117HFI     H1 1892   2.266   3.177   0.678  1.0597  3.9471  0.3330
  117HFI     H2 1893   2.402   3.116   0.439 -0.6355 -1.4284  1.7961
  118HFI     O1 1894   0.618   1.669   3.514  0.5837 -0.5739  0.0788
  118HFI     C1 1895   0.735   1.753   3.528  0.0117 -0.0470  0.1481
  118HFI     C2 1896   0.795   1.750   3.672 -0.3121 -0.0721 -0.5773
  118HFI     F1 1897   0.801   1.620   3.721 -0.2733 -0.1697  0.3426
  118HFI     F2 1898   0.721   1.815   3.766 -0.2651 -0.2131 -0.0433
  118HFI     F3 1899   0.923   1.791   3.677  0.1889 -0.5841  0.3409
  118HFI     C3 1900   0.718   1.895   3.472  0.0100  0.2755 -0.2131
  118HFI     F4 1901   0.828   1.971   3.484  0.6273 -0.1653 -0.0214
  118HFI     F5 1902   0.614   1.955   3.540  0.3392 -0.3966  0.3584
  118HFI     F6 1903   0.686   1.880   3.340  0.5305 -0.3324 -0.1649
  118HFI     H1 1904   0.553   1.708   3.573 -0.6049 -0.5108 -1.2479
  118HFI     H2 1905   0.815   1.713   3.465  0.4157 -0.5405  0.9540
  119HFI     O1 1906   1.488   0.106   0.496 -0.1676 -0.5847  0.0690
  119HFI     C1 1907   1.407   0.220   0.452  0.2391 -0.7020 -0.0143
  119HFI     C2 1908   1.440   0.347   0.540 -0.8620  0.0509  0.6086
  119HFI     F1 1909   1.438   0.321   0.674  0.5965  0.8402 -0.3683
  119HFI     F2 1910   1.350   0.447   0.517  0.6653 -0.1549 -0.3381
  119HFI     F3 1911   1.564   0.393   0.515  0.1333 -0.2513 -0.0802
  119HFI     C3 1912   1.260   0.179   0.460  0.9070  0.2655 -0.1635
  119HFI     F4 1913   1.236   0.068   0.394  0.0432  0.1121  0.2166
  119HFI     F5 1914   1.184   0.278   0.404 -0.3733 -0.2327 -0.3825
  119HFI     F6 1915   1.214   0.161   0.592  0.6000  0.3685 -0.3963
  119HFI     H1 1916   1.515   0.106   0.589 -1.1963 -0.2702  0.3760
  119HFI     H2 1917   1.417   0.243   0.345 -2.4585  1.1587  0.0745
  120HFI     O1 1918   1.231   1.949   2.836  0.0486  0.1809 -0.3159
  120HFI     C1 1919   1.276   2.058   2.755 -0.0975 -0.1742  0.2063
  120HFI     C2 1920   1.429   2.079   2.787 -0.0747 -0.7713  0.0395
  120HFI     F1 1921   1.452   2.146   2.896  0.1197 -0.0683  0.2304
  120HFI     F2 1922   1.485   2.146   2.680 -0.2333  0.7084  0.5676
  120HFI     F3 1923   1.500   1.960   2.801 -0.3080 -0.3382 -0.8669
  120HFI     C3 1924   1.191   2.184   2.766  0.4203  0.0859  0.1500
  120HFI     F4 1925   1.089   2.165   2.677  0.0625  0.2281 -0.0922
  120HFI     F5 1926   1.253   2.299   2.726 -0.1826  0.9188 -0.4106
  120HFI     F6 1927   1.139   2.197   2.887  0.2530  0.1968  0.4934
  120HFI     H1 1928   1.135   1.952   2.854  0.2055 -1.5970  1.0678
  120HFI     H2 1929   1.278   2.032   2.649 -0.0956  1.7836 -0.2966
  121HFI     O1 1930   1.149   1.356   2.381  0.0307 -0.0720  0.2346
  121HFI     C1 1931   1.045   1.314   2.286  0.4651 -0.5469  0.0795
  121HFI     C2 1932   0.913   1.404   2.313 -0.0561  0.8145 -0.1192
  121HFI     F1 1933   0.933   1.528   2.288  0.3789  0.1229  0.0318
  121HFI     F2 1934   0.875   1.396   2.443 -0.1752 -0.4520 -0.0386
  121HFI     F3 1935   0.814   1.360   2.239  0.2306  0.2029 -0.3170
  121HFI     C3 1936   1.026   1.163   2.289  0.8258  0.2051  0.0907
  121HFI     F4 1937   0.951   1.118   2.183 -0.0773  0.2108 -0.3103
  121HFI     F5 1938   0.960   1.129   2.410 -0.3846  0.1382 -0.0949
  121HFI     F6 1939   1.137   1.088   2.286  0.0760 -1.1287 -0.2199
  121HFI     H1 1940   1.115   1.322   2.466 -3.0252  1.9183 -0.1531
  121HFI     H2 1941   1.068   1.337   2.181  0.5156 -2.1451 -0.2688
  122HFI     O1 1942   0.796   0.138   1.401  0.6727  0.1379  0.5245
  122HFI     C1 1943   0.674   0.051   1.396  0.4872  0.5427  0.5882
  122HFI     C2 1944   0.541   0.130   1.428 -0.7232  0.4118 -0.1871
  122HFI     F1 1945   0.440   0.084   1.355 -0.6863  0.4326 -0.2103
  122HFI     F2 1946   0.552   0.255   1.387  0.5635  0.3261  0.2604
  122HFI     F3 1947   0.511   0.134   1.554  0.3477 -0.0487 -0.3266
  122HFI     C3 1948   0.698  -0.079   1.478  0.1101 -0.1984 -0.6147
  122HFI     F4 1949   0.709  -0.049   1.608  0.6303 -0.4515  0.2425
  122HFI     F5 1950   0.809  -0.139   1.426  0.6191 -0.2137 -0.0513
  122HFI     F6 1951   0.598  -0.166   1.464  0.0981 -0.0944 -0.1495
  122HFI     H1 1952   0.808   0.169   1.493 -0.0225 -1.5539  1.2069
  122HFI     H2 1953   0.665   0.019   1.291  1.3055 -1.7111  1.1625
  123HFI     O1 1954   1.601   2.232   2.425  0.0632 -0.1789  0.3270
  123HFI     C1 1955   1.508   2.272   2.326 -0.3933 -0.6439 -0.1369
  123HFI     C2 1956   1.496   2.427   2.310 -0.3134  0.7607 -0.4693
  123HFI     F1 1957   1.414   2.461   2.213  0.3244 -0.3654  0.3165
  123HFI     F2 1958   1.621   2.467   2.291  0.1208  0.1049 -0.3201
  123HFI     F3 1959   1.453   2.484   2.427 -0.3745  0.3627  0.3873
  123HFI     C3 1960   1.367   2.204   2.349 -0.3515 -0.6536 -0.4010
  123HFI     F4 1961   1.387   2.074   2.379 -0.1279 -0.1447 -0.0574
  123HFI     F5 1962   1.291   2.215   2.232 -0.3219  0.0020  0.4144
  123HFI     F6 1963   1.300   2.259   2.448 -0.5954 -0.3217 -0.8461
  123HFI     H1 1964   1.574   2.284   2.503 -2.0552  1.1506 -1.2524
  123HFI     H2 1965   1.551   2.247   2.228  1.2247 -1.7143  0.8178
  124HFI     O1 1966   1.417   2.204   1.211 -0.5234 -0.3962 -0.2547
  124HFI     C1 1967   1.352   2.308   1.144  0.5848  0.4385 -0.2845
  124HFI     C2 1968   1.214   2.256   1.092  0.1049  0.2248  0.1443
  124HFI     F1 1969   1.138   2.235   1.197 -0.1021  0.4611 -0.0146
  124HFI     F2 1970   1.219   2.147   1.015 -0.4508 -0.7009 -0.0757
  124HFI     F3 1971   1.138   2.350   1.022 -0.0763 -0.1009 -0.2294
  124HFI     C3 1972   1.440   2.360   1.028  0.1131  1.0257  0.3737
  124HFI     F4 1973   1.430   2.284   0.914  0.2702 -0.5590 -0.3457
  124HFI     F5 1974   1.575   2.364   1.063 -0.2286  0.1537 -0.1501
  124HFI     F6 1975   1.404   2.491   1.003  0.3621 -0.3170 -0.0593
  124HFI     H1 1976   1.373   2.121   1.185 -0.2126 -0.6889  0.1588
  124HFI     H2 1977   1.335   2.389   1.215  1.1457 -1.0386  1.5543
  125HFI     O1 1978   1.991   2.615   3.276  0.0693 -0.3768  0.6465
  125HFI     C1 1979   1.967   2.725   3.182 -0.2775 -0.3219  0.6064
  125HFI     C2 1980   1.817   2.717   3.126  0.3441  0.5539 -0.2476
  125HFI     F1 1981   1.785   2.595   3.069  0.1277 -0.1619 -0.5237
  125HFI     F2 1982   1.790   2.813   3.040 -0.2288  0.0138 -0.2922
  125HFI     F3 1983   1.722   2.731   3.224  0.1787 -0.0708 -0.1367
  125HFI     C3 1984   2.090   2.736   3.082  0.4665  0.3574 -0.0101
  125HFI     F4 1985   2.195   2.764   3.163 -0.0075 -0.1582  0.1092
  125HFI     F5 1986   2.076   2.839   2.995  0.4309 -0.4904 -0.0588
  125HFI     F6 1987   2.120   2.618   3.014 -0.3946 -0.1098 -0.0174
  125HFI     H1 1988   2.073   2.637   3.324 -0.4974  0.6210  1.1748
  125HFI     H2 1989   1.958   2.819   3.236  0.5110 -0.2294  0.5803
  126HFI     O1 1990   1.320   2.607   3.798 -0.6200 -0.3131 -0.2447
  126HFI     C1 1991   1.408   2.694   3.875 -0.2003 -0.1311  0.9972
  126HFI     C2 1992   1.556   2.644   3.870  0.3031 -0.6358 -0.4400
  126HFI     F1 1993   1.634   2.694   3.974 -0.1660 -0.3878 -0.0348
  126HFI     F2 1994   1.612   2.689   3.757 -0.3352 -0.1262 -0.0982
  126HFI     F3 1995   1.564   2.509   3.862  0.1927 -0.0297 -0.2537
  126HFI     C3 1996   1.350   2.724   4.011  0.0612 -0.1782 -0.2899
  126HFI     F4 1997   1.435   2.800   4.080 -0.6877 -0.7614 -0.0774
  126HFI     F5 1998   1.317   2.618   4.078 -0.4256  0.4656  0.0699
  126HFI     F6 1999   1.235   2.794   3.994  0.4866 -0.8911 -0.4349
  126HFI     H1 2000   1.263   2.669   3.750 -0.1797 -0.2416 -0.6762
  126HFI     H2 2001   1.412   2.788   3.819 -3.5544 -1.2599 -1.2957
  127HFI     O1 2002   2.495   2.424   2.462 -0.0682  0.0830  0.3797
  127HFI     C1 2003   2.462   2.297   2.394 -0.2021 -0.9500  0.3326
  127HFI     C2 2004   2.589   2.235   2.337 -0.5731  0.2837 -0.4994
  127HFI     F1 2005   2.676   2.202   2.437 -0.3868 -0.4696 -0.2349
  127HFI     F2 2006   2.654   2.319   2.252  0.5944  0.1666  0.4659
  127HFI     F3 2007   2.568   2.113   2.280 -0.1353 -0.0316 -0.0224
  127HFI     C3 2008   2.349   2.324   2.288  0.2809 -0.0578 -0.7061
  127HFI     F4 2009   2.237   2.373   2.356 -0.1146 -0.0335  0.5910
  127HFI     F5 2010   2.314   2.217   2.213  0.1968  0.3814  0.4659
  127HFI     F6 2011   2.394   2.416   2.198 -0.4442 -0.0771 -0.3634
  127HFI     H1 2012   2.566   2.412   2.527  1.1768  1.2131 -0.7537
  127HFI     H2 2013   2.409   2.231   2.465 -0.5760 -1.3324 -0.3006
  128HFI     O1 2014   1.128   3.017   2.264  0.1588 -0.4169  0.1305
  128HFI     C1 2015   1.046   2.892   2.262 -0.1796  0.3512 -0.0031
  128HFI     C2 2016   0.906   2.914   2.314  0.5002 -0.2468 -0.0553
  128HFI     F1 2017   0.909   2.936   2.446 -0.2868  0.4212 -0.4205
  128HFI     F2 2018   0.835   2.803   2.295 -0.9513  0.2092  0.7182
  128HFI     F3 2019   0.852   3.020   2.251 -0.4961  0.0060 -0.0010
  128HFI     C3 2020   1.117   2.772   2.322  0.3794  0.3641  0.5809
  128HFI     F4 2021   1.221   2.731   2.247 -0.1666 -0.5265  0.2383
  128HFI     F5 2022   1.043   2.662   2.333  0.1638 -0.6758 -0.0289
  128HFI     F6 2023   1.160   2.808   2.447 -0.1498  0.1039  0.1833
  128HFI     H1 2024   1.188   3.029   2.340  0.8642  1.3878 -0.6896
  128HFI     H2 2025   1.025   2.847   2.164 -2.1729 -0.2602  0.6633
  129HFI     O1 2026   0.075   3.138   2.593 -0.1894  0.1603 -0.3528
  129HFI     C1 2027   0.074   3.218   2.468  0.1794  0.4859  0.6280
  129HFI     C2 2028   0.008   3.358   2.501  0.2461  0.3978  0.2281
  129HFI     F1 2029   0.052   3.403   2.617 -0.7222  0.4179 -0.1451
  129HFI     F2 2030  -0.121   3.361   2.511  0.2440 -0.0344 -1.1018
  129HFI     F3 2031   0.052   3.443   2.415 -0.0922 -0.4729  0.2573
  129HFI     C3 2032  -0.006   3.150   2.353 -0.4973 -0.1298 -0.6840
  129HFI     F4 2033  -0.114   3.092   2.403 -0.4692  0.0023  0.2526
  129HFI     F5 2034   0.072   3.050   2.298  0.6579  0.4166 -0.3636
  129HFI     F6 2035  -0.038   3.234   2.253 -0.3250  0.1448  0.4905
  129HFI     H1 2036   0.040   3.195   2.664  2.7512  0.4936  0.9216
  129HFI     H2 2037   0.179   3.227   2.439 -0.5650 -0.1423 -2.4664
  130HFI     O1 2038   2.935   1.222   2.488  0.4601 -0.4446  0.4391
  130HFI     C1 2039   2.824   1.280   2.415  0.4805  0.4426  0.4174
  130HFI     C2 2040   2.865   1.346   2.276 -0.0501 -0.2135 -0.2682
  130HFI     F1 2041   2.959   1.263   2.222  0.0049  0.2416  0.0689
  130HFI     F2 2042   2.918   1.457   2.297  0.1411 -0.2565  0.7275
  130HFI     F3 2043   2.754   1.363   2.203  0.3450  0.1030  0.1434
  130HFI     C3 2044   2.745   1.377   2.512  0.1364  0.6069  0.1661
  130HFI     F4 2045   2.713   1.299   2.621 -0.1961  0.0928 -0.2912
  130HFI     F5 2046   2.634   1.420   2.464 -0.7772  0.1956  0.4622
  130HFI     F6 2047   2.822   1.483   2.559  0.6523  0.4771  0.1864
  130HFI     H1 2048   2.984   1.169   2.422  0.5774 -0.6914  0.7212
  130HFI     H2 2049   2.761   1.198   2.379  0.9485  0.5475 -0.6742
  131HFI     O1 2050   2.722   2.047   3.516 -0.4288 -0.7858  0.0389
  131HFI     C1 2051   2.787   1.942   3.592  0.1530 -0.4393 -1.0025
  131HFI     C2 2052   2.689   1.865   3.691 -0.1063  0.4610 -0.6027
  131HFI     F1 2053   2.580   1.836   3.620 -0.1407  0.0567  0.2555
  131HFI     F2 2054   2.655   1.943   3.800 -0.0790  0.2041  0.3363
  131HFI     F3 2055   2.749   1.748   3.736  0.0060  0.3882 -0.0160
  131HFI     C3 2056   2.915   1.988   3.672 -0.4797 -0.3533  1.1964
  131HFI     F4 2057   2.886   2.082   3.766  0.3603  1.1770 -0.4694
  131HFI     F5 2058   3.014   2.044   3.598  0.4493 -0.0277  0.1390
  131HFI     F6 2059   2.969   1.883   3.737  0.5172 -0.2446 -0.0864
  131HFI     H1 2060   2.639   2.018   3.474  0.2319 -0.6372 -1.3897
  131HFI     H2 2061   2.823   1.864   3.524  0.7138 -1.3843  0.3845
  132HFI     O1 2062   2.844   0.515   3.437 -0.2942  0.0436 -0.7732
  132HFI     C1 2063   2.730   0.519   3.343  0.5872  0.4404  0.4451
  132HFI     C2 2064   2.759   0.457   3.207 -0.5089 -0.1567 -0.1586
  132HFI     F1 2065   2.656   0.429   3.128  0.3080 -0.1628  0.1804
  132HFI     F2 2066   2.831   0.345   3.216  0.0433 -0.0458 -0.4666
  132HFI     F3 2067   2.841   0.543   3.145 -0.3129  0.5384 -0.2607
  132HFI     C3 2068   2.664   0.664   3.342 -0.2094 -0.1259  0.2568
  132HFI     F4 2069   2.624   0.694   3.465 -0.5854  0.7554  0.3175
  132HFI     F5 2070   2.552   0.660   3.267 -0.0240 -0.2834  0.1739
  132HFI     F6 2071   2.746   0.759   3.302 -0.4184 -0.0271  0.6180
  132HFI     H1 2072   2.924   0.533   3.384  1.4339 -0.4851  1.6004
  132HFI     H2 2073   2.653   0.450   3.378  0.5614  0.4043  0.3171
  133HFI     O1 2074   3.314   0.775   2.472 -0.2005  0.4328  0.2753
  133HFI     C1 2075   3.408   0.888   2.459  0.0089  0.2457  0.0585
  133HFI     C2 2076   3.423   0.943   2.317  0.8814  0.3251 -0.3416
  133HFI     F1 2077   3.517   1.042   2.310  0.1141  0.1156 -0.0304
  133HFI     F2 2078   3.303   0.996   2.275  0.1489  0.4682  0.0260
  133HFI     F3 2079   3.462   0.843   2.226  0.0294  0.1513  0.6828
  133HFI     C3 2080   3.543   0.838   2.510  0.1422 -0.4103 -0.0647
  133HFI     F4 2081   3.589   0.732   2.431 -0.1594 -0.2700  0.2775
  133HFI     F5 2082   3.530   0.791   2.637 -0.1229  0.1372  0.3001
  133HFI     F6 2083   3.637   0.930   2.515 -0.3726  0.1456 -0.4038
  133HFI     H1 2084   3.346   0.699   2.421  0.3416  0.7683  0.1072
  133HFI     H2 2085   3.380   0.972   2.523 -1.0111  0.1746 -0.2883
  134HFI     O1 2086   0.857   0.295   1.140 -0.8467 -0.2826  0.2835
  134HFI     C1 2087   0.961   0.206   1.088 -0.0212  0.5691 -0.6676
  134HFI     C2 2088   1.048   0.269   0.973  0.2703  0.8215  0.5596
  134HFI     F1 2089   1.081   0.393   1.013  0.1403  0.1580  0.3109
  134HFI     F2 2090   0.982   0.269   0.855  0.2356 -0.4672 -0.5171
  134HFI     F3 2091   1.165   0.201   0.969 -0.2464  0.0218 -0.9311
  134HFI     C3 2092   0.897   0.072   1.035 -1.2872 -0.3888 -0.0769
  134HFI     F4 2093   0.784   0.095   0.963 -0.4333 -0.4617  0.2123
  134HFI     F5 2094   0.871  -0.010   1.139  0.6097  0.1815 -0.2926
  134HFI     F6 2095   0.975  -0.010   0.960 -0.4495 -0.1031 -0.0911
  134HFI     H1 2096   0.821   0.258   1.222  1.0743 -0.7864  0.9309
  134HFI     H2 2097   1.042   0.173   1.154  1.6832  1.9867 -2.0213
  135HFI     O1 2098   0.927   0.682   3.179  0.3116 -0.8080  0.3163
  135HFI     C1 2099   1.040   0.770   3.201  0.0319 -0.4478 -0.4249
  135HFI     C2 2100   1.133   0.702   3.310 -0.5529  0.0379  0.2961
  135HFI     F1 2101   1.171   0.577   3.265  0.2902  0.1220 -0.1142
  135HFI     F2 2102   1.076   0.689   3.429 -0.4876 -0.6129  0.1611
  135HFI     F3 2103   1.245   0.767   3.325 -0.3262 -0.2825  0.4075
  135HFI     C3 2104   1.006   0.922   3.229 -0.2753  0.0426  0.1867
  135HFI     F4 2105   0.901   0.966   3.151  0.1084 -0.4129  0.2018
  135HFI     F5 2106   1.118   0.991   3.200  0.3519  0.0718 -0.0851
  135HFI     F6 2107   0.971   0.937   3.357  0.0070  0.1227  0.2792
  135HFI     H1 2108   0.910   0.614   3.246 -0.9970 -1.0224 -0.2025
  135HFI     H2 2109   1.110   0.770   3.117  0.2898 -1.1956 -0.2192
  136HFI     O1 2110   0.614   2.452   2.664 -0.5203  0.6827 -0.3156
  136HFI     C1 2111   0.726   2.486   2.567  0.6895 -0.7272 -1.0524
  136HFI     C2 2112   0.709   2.406   2.437  0.6312  0.0241 -0.3728
  136HFI     F1 2113   0.750   2.272   2.452  0.4823  0.1110 -0.5216
  136HFI     F2 2114   0.777   2.469   2.334  0.0215 -0.8062 -0.1154
  136HFI     F3 2115   0.582   2.396   2.404 -0.2173 -0.0355 -0.0394
  136HFI     C3 2116   0.866   2.467   2.633  0.0943 -0.1585 -0.1959
  136HFI     F4 2117   0.967   2.453   2.541 -0.1396  0.2757  0.3060
  136HFI     F5 2118   0.865   2.355   2.722  0.5198 -0.0568 -0.1481
  136HFI     F6 2119   0.897   2.571   2.721 -0.6848 -0.2373  0.2646
  136HFI     H1 2120   0.627   2.358   2.685 -1.8194  0.3974 -0.7389
  136HFI     H2 2121   0.714   2.590   2.534  0.2136 -0.3307  0.3182
  137HFI     O1 2122   3.060   1.129   2.790  0.0327 -0.7054  0.3649
  137HFI     C1 2123   3.152   1.240   2.773  0.1177 -0.3881 -0.2719
  137HFI     C2 2124   3.294   1.185   2.813  0.1632 -0.0887 -0.3625
  137HFI     F1 2125   3.322   1.079   2.732 -0.2062 -0.4030  0.2783
  137HFI     F2 2126   3.304   1.150   2.945 -0.0794  0.2085 -0.6772
  137HFI     F3 2127   3.385   1.285   2.788  0.2666 -0.2303 -0.0973
  137HFI     C3 2128   3.104   1.363   2.859  0.4520  0.2212  0.3814
  137HFI     F4 2129   3.186   1.471   2.854  1.2668  0.1712 -0.3257
  137HFI     F5 2130   3.100   1.328   2.988  0.4120 -0.1209  0.0565
  137HFI     F6 2131   2.977   1.406   2.821  0.0071  0.2903  0.0612
  137HFI     H1 2132   2.987   1.142   2.726  0.4273  1.0643  0.2543
  137HFI     H2 2133   3.156   1.280   2.671  1.8697  0.6825  0.2026
  138HFI     O1 2134   3.301   3.324   0.465 -0.1508  0.4443  0.1022
  138HFI     C1 2135   3.234   3.317   0.592 -0.6389 -0.5763 -0.1143
  138HFI     C2 2136   3.080   3.285   0.574  0.3341 -0.2654  0.4846
  138HFI     F1 2137   3.021   3.306   0.691 -0.1789 -0.2140 -0.4241
  138HFI     F2 2138   3.069   3.159   0.535 -0.2953  0.1343  0.7417
  138HFI     F3 2139   3.020   3.364   0.483  0.2923  0.3122  0.5888
  138HFI     C3 2140   3.281   3.435   0.682 -0.1745 -0.0529  0.1680
  138HFI     F4 2141   3.244   3.419   0.809  0.1625 -0.2832  0.6730
  138HFI     F5 2142   3.240   3.554   0.635 -0.5532  0.5098 -0.0102
  138HFI     F6 2143   3.417   3.435   0.679 -0.0945  0.3744 -0.0978
  138HFI     H1 2144   3.252   3.381   0.403  2.7274  1.4648 -1.3269
  138HFI     H2 2145   3.270   3.231   0.650  0.9841  2.3202  3.3789
  139HFI     O1 2146   0.192   1.494   1.355  0.3681 -0.1276 -0.5248
  139HFI     C1 2147   0.100   1.522   1.475 -0.2658 -0.2786  0.0664
  139HFI     C2 2148  -0.047   1.492   1.436  0.2608  0.1894  0.4613
  139HFI     F1 2149  -0.050   1.370   1.390 -0.1044 -0.4009  0.0347
  139HFI     F2 2150  -0.099   1.580   1.353 -0.5383  0.6858  0.1300
  139HFI     F3 2151  -0.132   1.488   1.545 -0.5604 -0.2379 -0.0189
  139HFI     C3 2152   0.116   1.672   1.513 -0.3759  0.1790 -1.3517
  139HFI     F4 2153   0.093   1.757   1.404 -0.2189 -0.0001 -0.5357
  139HFI     F5 2154   0.239   1.697   1.555  0.0852 -0.2129  0.5300
  139HFI     F6 2155   0.032   1.705   1.612 -0.6069  0.1917  0.7342
  139HFI     H1 2156   0.284   1.518   1.376  0.7360 -0.4940 -1.6794
  139HFI     H2 2157   0.131   1.457   1.557  2.6415  1.5125  0.4599
  140HFI     O1 2158   3.381   1.878   0.008  0.2803 -0.0600  0.2492
  140HFI     C1 2159   3.313   2.005  -0.031  0.1828  0.6945 -1.0426
  140HFI     C2 2160   3.407   2.093  -0.114  0.3790  0.0156  0.1562
  140HFI     F1 2161   3.333   2.174  -0.197 -0.1011  0.3058  0.0028
  140HFI     F2 2162   3.487   2.016  -0.192  0.4290  0.2515 -0.8323
  140HFI     F3 2163   3.492   2.165  -0.043 -0.0309  0.4953  0.1049
  140HFI     C3 2164   3.253   2.081   0.096  0.0229 -0.8882  0.0251
  140HFI     F4 2165   3.149   2.012   0.150 -0.2825 -0.1988  0.4273
  140HFI     F5 2166   3.215   2.209   0.065  0.1763  0.7612  0.8832
  140HFI     F6 2167   3.347   2.085   0.198 -0.2864 -0.3191 -0.5031
  140HFI     H1 2168   3.415   1.886   0.098  2.2593 -0.8300 -0.3947
  140HFI     H2 2169   3.231   1.971  -0.096 -0.1585  0.4339 -0.4821
  141HFI     O1 2170   2.960   1.051   0.413  0.3903 -0.6085 -0.3979
  141HFI     C1 2171   2.883   1.096   0.532 -0.1131 -0.7702  0.2659
  141HFI     C2 2172   2.897   1.002   0.652  0.3680 -0.0601 -0.2176
  141HFI     F1 2173   2.839   0.880   0.624  0.4057  0.1097  0.0745
  141HFI     F2 2174   2.845   1.048   0.766  0.6352  0.1269 -0.0386
  141HFI     F3 2175   3.024   0.976   0.684 -0.1374  0.2840 -0.4107
  141HFI     C3 2176   2.734   1.123   0.496  0.5141 -0.2439  0.2442
  141HFI     F4 2177   2.666   1.190   0.593  0.3795  0.0442 -0.4186
  141HFI     F5 2178   2.661   1.016   0.461 -0.1478 -0.6004  0.2723
  141HFI     F6 2179   2.739   1.204   0.390  0.1598  0.4040 -0.7407
  141HFI     H1 2180   2.929   0.963   0.385 -1.3882 -0.8400  2.0836
  141HFI     H2 2181   2.928   1.190   0.566  4.3148 -2.2118 -1.3273
  142HFI     O1 2182   3.377   0.132   3.266 -0.3279  0.2776 -0.7950
  142HFI     C1 2183   3.401   0.187   3.402 -0.1508  0.2537  0.5315
  142HFI     C2 2184   3.359   0.093   3.519 -0.6146  0.1732  0.1283
  142HFI     F1 2185   3.423  -0.020   3.505  0.3963 -0.2338 -0.2431
  142HFI     F2 2186   3.226   0.065   3.514 -0.3258 -0.0016  0.4197
  142HFI     F3 2187   3.379   0.137   3.645 -0.2581 -0.2049 -0.1156
  142HFI     C3 2188   3.333   0.334   3.415 -0.6767  0.5692 -0.1836
  142HFI     F4 2189   3.194   0.321   3.415 -0.3017 -0.2213 -0.2687
  142HFI     F5 2190   3.375   0.411   3.315 -0.3690  0.6675 -0.4264
  142HFI     F6 2191   3.364   0.389   3.540 -0.1555 -0.1001  0.2980
  142HFI     H1 2192   3.357   0.038   3.276  0.7178  0.2072  0.6569
  142HFI     H2 2193   3.509   0.199   3.414 -0.1860 -1.3897  2.6855
  143HFI     O1 2194   2.415   0.905   1.325  0.3001  1.0142 -0.0968
  143HFI     C1 2195   2.326   0.809   1.390  0.8295 -0.5692  0.5573
  143HFI     C2 2196   2.210   0.763   1.301 -0.3341  0.7462  0.9875
  143HFI     F1 2197   2.149   0.656   1.351 -0.2737  0.0918 -0.2460
  143HFI     F2 2198   2.264   0.728   1.184  0.4835  0.1811  0.2225
  143HFI     F3 2199   2.112   0.853   1.276 -0.2063  0.0983 -0.0918
  143HFI     C3 2200   2.280   0.850   1.529 -0.8715  0.3882 -0.1663
  143HFI     F4 2201   2.222   0.749   1.598 -0.3383 -0.2247 -0.0055
  143HFI     F5 2202   2.209   0.958   1.528  0.1891  0.0643 -0.1314
  143HFI     F6 2203   2.398   0.884   1.595  0.2940  1.0407 -0.2697
  143HFI     H1 2204   2.386   0.996   1.340  1.0279  1.4129 -1.0542
  143HFI     H2 2205   2.383   0.717   1.409 -2.0230 -1.7737  3.8435
  144HFI     O1 2206   3.087   0.905   2.513  0.1748  0.0883 -0.5328
  144HFI     C1 2207   2.977   0.808   2.544  0.0325  0.7300  0.0697
  144HFI     C2 2208   2.845   0.852   2.491 -0.5403 -0.2581 -0.4670
  144HFI     F1 2209   2.861   0.905   2.363  0.4355  0.2762  0.1606
  144HFI     F2 2210   2.781   0.942   2.565  0.0010 -0.7359 -0.3643
  144HFI     F3 2211   2.755   0.756   2.475  0.5741  0.0378 -0.2740
  144HFI     C3 2212   2.967   0.769   2.690  0.5225 -0.6466 -0.1325
  144HFI     F4 2213   2.910   0.862   2.776 -0.2944 -0.2662  0.3409
  144HFI     F5 2214   3.087   0.744   2.741 -0.5166 -0.1613  0.0517
  144HFI     F6 2215   2.901   0.654   2.701 -0.0238  0.4368 -0.2184
  144HFI     H1 2216   3.167   0.852   2.496  0.3245  0.0953  0.1496
  144HFI     H2 2217   2.992   0.716   2.486  1.0332  1.9043 -1.5965
  145HFI     O1 2218   1.063   0.008   3.772 -0.3642 -0.9334 -0.3512
  145HFI     C1 2219   0.946   0.031   3.857 -0.5601 -0.2491  0.0527
  145HFI     C2 2220   0.842  -0.081   3.837  0.0968 -0.7410  0.5447
  145HFI     F1 2221   0.752  -0.084   3.938  0.4040  0.3326 -0.1437
  145HFI     F2 2222   0.913  -0.193   3.837 -0.2407  0.1933 -0.4452
  145HFI     F3 2223   0.780  -0.081   3.711 -0.2497 -0.1458 -0.4649
  145HFI     C3 2224   0.887   0.173   3.837  0.8276 -0.3294  0.1018
  145HFI     F4 2225   0.971   0.272   3.885 -0.0860 -0.0882 -0.0998
  145HFI     F5 2226   0.767   0.188   3.889 -0.2212  0.2811  0.2967
  145HFI     F6 2227   0.882   0.197   3.708  0.0333 -0.0550 -0.2318
  145HFI     H1 2228   1.055   0.033   3.679 -1.5469  2.1203  0.5181
  145HFI     H2 2229   0.967   0.024   3.964  2.6394 -1.3924 -0.6018
  146HFI     O1 2230   1.715   1.740   2.886  0.4195 -0.2385  0.4230
  146HFI     C1 2231   1.790   1.774   2.766 -0.1253  0.1796  0.0873
  146HFI     C2 2232   1.793   1.662   2.655 -0.4356 -0.2874 -0.3348
  146HFI     F1 2233   1.894   1.674   2.570  0.5736  0.4718 -0.1744
  146HFI     F2 2234   1.680   1.649   2.587  0.0970 -0.0494 -0.3239
  146HFI     F3 2235   1.818   1.544   2.711  0.3934  0.1368  0.4115
  146HFI     C3 2236   1.937   1.820   2.807  0.4937 -0.0896 -0.5230
  146HFI     F4 2237   2.000   1.881   2.694  0.5805  0.1934  0.1397
  146HFI     F5 2238   2.011   1.719   2.848 -0.0428  0.2279  0.9675
  146HFI     F6 2239   1.943   1.911   2.907  0.2439 -0.1386 -0.4098
  146HFI     H1 2240   1.723   1.643   2.882  1.4390 -0.2079  1.5326
  146HFI     H2 2241   1.748   1.867   2.724 -0.8269 -0.8068 -1.4395
  147HFI     O1 2242   1.398   3.129   2.361 -0.6375 -0.0012 -0.3735
  147HFI     C1 2243   1.519   3.114   2.276 -0.4460 -0.7042  0.5532
  147HFI     C2 2244   1.603   2.983   2.318  0.3384  0.3200  0.2567
  147HFI     F1 2245   1.517   2.878   2.336  0.2050 -0.1455  0.5680
  147HFI     F2 2246   1.664   3.006   2.433  0.2130  0.3237  0.3661
  147HFI     F3 2247   1.697   2.961   2.225  0.2015  0.2432 -0.1033
  147HFI     C3 2248   1.606   3.249   2.276  0.6106 -0.3036  0.6562
  147HFI     F4 2249   1.542   3.347   2.210 -0.2542  0.1169  0.8075
  147HFI     F5 2250   1.726   3.239   2.215 -0.5722  0.0539 -0.0551
  147HFI     F6 2251   1.626   3.295   2.402 -0.5325  0.0249 -0.0953
  147HFI     H1 2252   1.425   3.194   2.428  1.6945 -1.4649  0.1476
  147HFI     H2 2253   1.479   3.087   2.177  3.8337  1.7312 -2.0005
  148HFI     O1 2254   2.312   3.360   2.954  0.4123  0.4496  0.4075
  148HFI     C1 2255   2.395   3.309   2.841  0.1997 -0.4333 -0.8310
  148HFI     C2 2256   2.386   3.410   2.731 -0.3413  0.1202 -0.2724
  148HFI     F1 2257   2.485   3.398   2.643 -0.3523  0.0170  0.9372
  148HFI     F2 2258   2.384   3.540   2.777  0.4447  0.6329 -0.1162
  148HFI     F3 2259   2.272   3.401   2.655  0.0546  0.2115 -0.3983
  148HFI     C3 2260   2.349   3.166   2.807  0.1106 -0.3681  0.1834
  148HFI     F4 2261   2.417   3.118   2.704  0.4552  0.5951 -0.7969
  148HFI     F5 2262   2.220   3.155   2.778  0.2714 -0.1219  0.4426
  148HFI     F6 2263   2.377   3.083   2.915  0.4879  0.1782 -0.2504
  148HFI     H1 2264   2.268   3.441   2.921 -0.4288  0.9128  2.5840
  148HFI     H2 2265   2.502   3.307   2.863 -0.3299  0.4231  1.9935
  149HFI     O1 2266   3.287   2.752   3.738  0.0600  0.3886 -0.7958
  149HFI     C1 2267   3.348   2.656   3.648 -0.5277 -0.4807  0.2167
  149HFI     C2 2268   3.244   2.596   3.557 -1.3958 -0.2634  0.9431
  149HFI     F1 2269   3.307   2.542   3.448 -0.1917 -0.3193 -0.3605
  149HFI     F2 2270   3.151   2.690   3.512 -0.6192 -0.1491  0.4906
  149HFI     F3 2271   3.177   2.498   3.622  0.0311  0.1741  0.3601
  149HFI     C3 2272   3.427   2.552   3.732  0.0857  0.3246  0.6321
  149HFI     F4 2273   3.479   2.452   3.664  0.1830 -0.2317 -0.1976
  149HFI     F5 2274   3.343   2.494   3.822 -0.0253 -0.2650 -0.3820
  149HFI     F6 2275   3.531   2.616   3.794  0.6440  0.3318 -0.2330
  149HFI     H1 2276   3.328   2.741   3.825 -1.0139 -0.1549 -0.3458
  149HFI     H2 2277   3.420   2.706   3.583  1.1633 -2.8855  0.1582
  150HFI     O1 2278   2.719   3.016   2.458  0.0699 -0.3990 -0.0215
  150HFI     C1 2279   2.680   2.874   2.434  0.7627  0.4801 -0.1493
  150HFI     C2 2280   2.785   2.769   2.509  0.8925  0.5981  0.3209
  150HFI     F1 2281   2.734   2.640   2.498  0.3034 -0.4640 -0.2305
  150HFI     F2 2282   2.807   2.795   2.637  0.5461  0.0477  0.1858
  150HFI     F3 2283   2.909   2.771   2.455 -0.4805 -0.3680  0.0648
  150HFI     C3 2284   2.659   2.838   2.285  0.6137 -0.3294 -0.3545
  150HFI     F4 2285   2.586   2.933   2.220  0.2257 -0.1562 -0.3196
  150HFI     F5 2286   2.595   2.719   2.272  0.3641  0.4403  0.3779
  150HFI     F6 2287   2.780   2.831   2.227  0.5192  0.4694 -0.0580
  150HFI     H1 2288   2.759   3.053   2.378 -0.5302 -0.1133 -0.1984
  150HFI     H2 2289   2.588   2.848   2.488  0.7929 -0.9108 -0.7572
  151HFI     O1 2290   1.501   2.282   3.235  0.1999 -0.1063  0.6929
  151HFI     C1 2291   1.636   2.307   3.285  0.1128  0.2111  0.6023
  151HFI     C2 2292   1.711   2.181   3.328 -0.3060  0.2586  0.4487
  151HFI     F1 2293   1.632   2.093   3.390 -0.0825  0.0206 -0.8057
  151HFI     F2 2294   1.816   2.206   3.410  0.1892  0.3449 -0.1080
  151HFI     F3 2295   1.755   2.115   3.219 -0.2129  0.3826  0.4501
  151HFI     C3 2296   1.631   2.421   3.390 -0.4344 -0.1001  0.0500
  151HFI     F4 2297   1.760   2.467   3.420 -0.0048 -0.4069 -0.0051
  151HFI     F5 2298   1.567   2.370   3.504 -0.7900  0.1384 -0.1281
  151HFI     F6 2299   1.563   2.533   3.343  0.1260  0.1800  0.1507
  151HFI     H1 2300   1.480   2.188   3.241 -1.7713  0.2715  0.1310
  151HFI     H2 2301   1.695   2.353   3.205  0.8704 -0.8491  0.5399
  152HFI     O1 2302   3.221   0.850   0.819 -0.1118  0.3077  0.3601
  152HFI     C1 2303   3.239   0.710   0.776 -0.0048 -0.7369 -0.3984
  152HFI     C2 2304   3.310   0.631   0.884  0.0840  0.2813 -0.3458
  152HFI     F1 2305   3.293   0.502   0.860  0.8703 -0.5548  0.0312
  152HFI     F2 2306   3.256   0.651   1.008 -0.3368  0.0431  0.7934
  152HFI     F3 2307   3.444   0.659   0.894 -0.2495 -0.2366  0.9185
  152HFI     C3 2308   3.300   0.700   0.630 -0.1182 -0.4331 -0.0398
  152HFI     F4 2309   3.261   0.586   0.570  0.3792 -0.3281 -0.2363
  152HFI     F5 2310   3.436   0.709   0.635 -0.6875  0.1564 -0.0388
  152HFI     F6 2311   3.254   0.797   0.552  0.7534 -0.4327 -0.0190
  152HFI     H1 2312   3.300   0.901   0.796 -0.0539 -0.3702 -1.0021
  152HFI     H2 2313   3.135   0.677   0.767 -1.2322  2.5888  0.6811
  153HFI     O1 2314   0.295   3.184   3.742 -0.8951 -0.0296  0.1626
  153HFI     C1 2315   0.335   3.079   3.836  0.0153  0.3468  0.8022
  153HFI     C2 2316   0.484   3.044   3.813  0.6245 -0.0495  0.3890
  153HFI     F1 2317   0.561   3.153   3.820 -0.0554 -0.0079 -0.2549
  153HFI     F2 2318   0.508   2.995   3.689  0.4848  0.1994  0.1419
  153HFI     F3 2319   0.536   2.960   3.904 -0.3264  0.1567 -0.0859
  153HFI     C3 2320   0.242   2.955   3.837  0.0411 -0.4354 -0.2150
  153HFI     F4 2321   0.258   2.880   3.721  0.5950 -0.0527 -0.0591
  153HFI     F5 2322   0.109   2.986   3.839 -0.5379  0.0824  0.1178
  153HFI     F6 2323   0.263   2.876   3.945 -0.3366 -0.7356 -0.1555
  153HFI     H1 2324   0.232   3.143   3.681 -2.2450 -0.0186  1.4948
  153HFI     H2 2325   0.326   3.112   3.940 -3.8492  0.4898  0.4880
  154HFI     O1 2326   1.792   0.984   3.583  0.4644 -0.7303 -0.1591
  154HFI     C1 2327   1.656   1.003   3.523 -0.6340 -0.7437  0.4563
  154HFI     C2 2328   1.582   1.131   3.572 -0.2875  0.0750  0.3864
  154HFI     F1 2329   1.460   1.148   3.518 -0.2310 -0.6851 -0.1478
  154HFI     F2 2330   1.655   1.239   3.528  0.4656  0.4240  0.2358
  154HFI     F3 2331   1.564   1.141   3.703  0.2199 -0.2641  0.4268
  154HFI     C3 2332   1.562   0.881   3.534  0.0438  0.4018  0.6089
  154HFI     F4 2333   1.539   0.833   3.663  0.1508 -0.1695 -0.0145
  154HFI     F5 2334   1.613   0.776   3.473 -0.2664 -0.1960  0.4125
  154HFI     F6 2335   1.441   0.904   3.476  0.8437 -0.3246  0.2647
  154HFI     H1 2336   1.840   0.919   3.529 -1.2672 -1.5389 -0.7443
  154HFI     H2 2337   1.678   1.022   3.417 -0.4326 -0.2820  0.5779
  155HFI     O1 2338   2.867   2.129   0.353  0.1227 -0.3355 -0.0444
  155HFI     C1 2339   2.907   2.202   0.478  0.5340 -0.3524  0.2152
  155HFI     C2 2340   2.998   2.322   0.453  0.7825 -0.1168  0.6190
  155HFI     F1 2341   3.105   2.282   0.384 -0.2692 -0.0152 -0.3456
  155HFI     F2 2342   3.037   2.372   0.570  0.2164 -0.0971  0.2517
  155HFI     F3 2343   2.941   2.421   0.383  0.1299 -0.7342  0.2431
  155HFI     C3 2344   2.966   2.099   0.582 -0.5252 -0.6622  0.0693
  155HFI     F4 2345   2.895   1.992   0.575  0.4154  0.5993  0.1443
  155HFI     F5 2346   2.963   2.147   0.710 -0.0301 -0.1326  0.8385
  155HFI     F6 2347   3.096   2.076   0.551  0.1878 -0.6406  0.7292
  155HFI     H1 2348   2.954   2.105   0.318  0.1904 -1.9369  1.1722
  155HFI     H2 2349   2.818   2.241   0.530 -0.1562  0.9323 -1.8697
  156HFI     O1 2350   0.804   1.608   0.586 -0.1504  0.6037 -0.4557
  156HFI     C1 2351   0.874   1.580   0.464 -0.4368  0.4848 -0.2853
  156HFI     C2 2352   0.836   1.685   0.359  0.5769  0.3784 -0.6600
  156HFI     F1 2353   0.707   1.669   0.319  0.2082 -0.2897 -0.3053
  156HFI     F2 2354   0.921   1.687   0.249  0.4216 -0.2256  0.3531
  156HFI     F3 2355   0.839   1.807   0.411  0.0381  0.3193 -0.2527
  156HFI     C3 2356   0.856   1.435   0.416  0.2048 -0.9582  0.1764
  156HFI     F4 2357   0.728   1.395   0.426 -0.2424  0.3678  0.3424
  156HFI     F5 2358   0.927   1.350   0.492 -0.2560  0.1818 -0.4881
  156HFI     F6 2359   0.889   1.419   0.288  0.3409  0.0786 -0.2519
  156HFI     H1 2360   0.794   1.526   0.638  1.0826  0.1360 -0.9296
  156HFI     H2 2361   0.981   1.595   0.483 -0.0751 -1.3742 -0.7901
  157HFI     O1 2362   3.245   0.400   0.293  0.3203 -0.1380  0.1975
  157HFI     C1 2363   3.248   0.305   0.179  0.3919  0.0004  0.0932
  157HFI     C2 2364   3.166   0.354   0.056 -0.7752  0.0110 -0.1311
  157HFI     F1 2365   3.238   0.452  -0.007  0.0555 -0.1494  0.2833
  157HFI     F2 2366   3.043   0.387   0.103 -0.1048 -0.0111  0.1096
  157HFI     F3 2367   3.144   0.251  -0.029  0.0242 -0.4517 -0.2314
  157HFI     C3 2368   3.182   0.162   0.225  0.5003 -0.5997 -0.5325
  157HFI     F4 2369   3.220   0.058   0.144 -0.2561  0.4845 -0.0094
  157HFI     F5 2370   3.050   0.163   0.237  0.3540  0.4025  0.2875
  157HFI     F6 2371   3.233   0.129   0.345  0.4776  0.0274  0.4536
  157HFI     H1 2372   3.304   0.368   0.364 -1.6856 -2.2701  0.9320
  157HFI     H2 2373   3.349   0.280   0.144  0.6107  3.7140 -2.0863
  158HFI     O1 2374   2.713   1.207   3.149  0.7463  0.1619 -1.0189
  158HFI     C1 2375   2.704   1.105   3.255 -0.4752  0.6948  0.2219
  158HFI     C2 2376   2.554   1.055   3.254  0.1534 -0.4621 -0.9491
  158HFI     F1 2377   2.530   1.002   3.130 -0.0375 -0.2303  0.2194
  158HFI     F2 2378   2.469   1.159   3.276 -0.0993  0.3032 -0.2402
  158HFI     F3 2379   2.526   0.958   3.344 -0.8285 -0.3758 -0.0907
  158HFI     C3 2380   2.759   1.152   3.394 -0.2483  0.3133  0.4454
  158HFI     F4 2381   2.892   1.188   3.390 -0.2065 -0.4954  0.2989
  158HFI     F5 2382   2.752   1.060   3.485  0.1485  0.1641 -0.2381
  158HFI     F6 2383   2.688   1.267   3.434 -0.4495 -0.1041 -0.3010
  158HFI     H1 2384   2.807   1.229   3.134  0.7655 -0.5481 -2.0474
  158HFI     H2 2385   2.762   1.016   3.226 -1.8658  0.2079 -1.1344
  159HFI     O1 2386   0.510   2.150   0.245  0.5016 -0.1692  0.1205
  159HFI     C1 2387   0.400   2.063   0.277  0.2093 -0.2485 -0.0307
  159HFI     C2 2388   0.403   1.997   0.421 -0.1845  0.3988  0.4571
  159HFI     F1 2389   0.504   1.906   0.427  0.3131  0.7294  0.0858
  159HFI     F2 2390   0.290   1.935   0.452 -0.5656 -0.2151 -0.0156
  159HFI     F3 2391   0.425   2.087   0.518 -0.2264  0.6561  0.7879
  159HFI     C3 2392   0.361   1.974   0.160  0.5595 -0.5359  0.1775
  159HFI     F4 2393   0.229   1.934   0.169  0.2471  0.3127 -0.2891
  159HFI     F5 2394   0.442   1.870   0.140 -0.1340  0.4185 -0.0740
  159HFI     F6 2395   0.362   2.041   0.045 -0.1297 -0.6925  0.6704
  159HFI     H1 2396   0.591   2.101   0.221  0.3472 -1.5004  2.1939
  159HFI     H2 2397   0.314   2.132   0.278  0.0901 -0.3307 -1.7375
  160HFI     O1 2398   1.577   0.811   0.299  0.9416  0.0417 -0.2438
  160HFI     C1 2399   1.674   0.752   0.201 -0.6973 -0.0904  0.3624
  160HFI     C2 2400   1.684   0.600   0.213  0.3163  0.0666  0.1013
  160HFI     F1 2401   1.758   0.555   0.313  0.5109 -0.3023  0.0095
  160HFI     F2 2402   1.735   0.556   0.092  0.3754  0.6870  0.0606
  160HFI     F3 2403   1.564   0.543   0.223 -0.6386  0.1491 -0.2908
  160HFI     C3 2404   1.813   0.833   0.220 -0.4404  0.2571  0.6770
  160HFI     F4 2405   1.917   0.773   0.162  0.1168  0.4901 -0.4729
  160HFI     F5 2406   1.849   0.830   0.357  0.1813  0.5252  0.2972
  160HFI     F6 2407   1.803   0.956   0.177  0.4135 -0.3901 -0.1654
  160HFI     H1 2408   1.587   0.747   0.371  0.1857 -0.6697 -0.7600
  160HFI     H2 2409   1.637   0.762   0.099  1.3659 -2.7333 -0.7111
  161HFI     O1 2410   2.453   0.536   2.277  0.2503 -0.7037 -0.1146
  161HFI     C1 2411   2.552   0.466   2.362  0.1762 -0.5009 -0.2643
  161HFI     C2 2412   2.691   0.456   2.289  1.0475 -0.6672  0.4144
  161HFI     F1 2413   2.688   0.363   2.186  0.0208 -0.5597 -0.2553
  161HFI     F2 2414   2.795   0.427   2.376 -0.2425 -0.2395  0.5327
  161HFI     F3 2415   2.730   0.577   2.231 -0.1900  0.4130 -0.1423
  161HFI     C3 2416   2.497   0.334   2.413 -0.9921  0.5574 -0.7531
  161HFI     F4 2417   2.472   0.250   2.310 -0.1206 -0.0939  0.3531
  161HFI     F5 2418   2.379   0.357   2.476 -0.2660  0.5078 -0.1783
  161HFI     F6 2419   2.577   0.268   2.500 -0.5114  0.0117 -0.2267
  161HFI     H1 2420   2.387   0.579   2.333  1.4046  0.8117  0.1172
  161HFI     H2 2421   2.581   0.529   2.447  4.9233 -1.3887 -1.1239
  162HFI     O1 2422   0.352   2.499   2.217  0.0563  0.1422  0.4756
  162HFI     C1 2423   0.323   2.636   2.265 -0.3686  1.0005  0.3638
  162HFI     C2 2424   0.424   2.683   2.379  0.0609  0.5511 -0.4956
  162HFI     F1 2425   0.549   2.685   2.337  0.3105 -0.3989  0.5866
  162HFI     F2 2426   0.414   2.607   2.489 -0.3336  0.0628  0.3731
  162HFI     F3 2427   0.396   2.811   2.408  0.2336 -0.2711  0.1835
  162HFI     C3 2428   0.178   2.652   2.299  0.0267 -0.0445 -0.5744
  162HFI     F4 2429   0.133   2.571   2.399  0.1136 -0.2458  0.5793
  162HFI     F5 2430   0.103   2.619   2.188 -0.6287  0.0129  1.1068
  162HFI     F6 2431   0.152   2.778   2.324  0.4244  0.0853  0.6079
  162HFI     H1 2432   0.386   2.441   2.287 -1.0746 -0.5016  0.4963
  162HFI     H2 2433   0.356   2.703   2.184  0.2684  0.2602  0.0078
  163HFI     O1 2434   0.609   0.063   3.559 -0.3017  0.0099 -0.2701
  163HFI     C1 2435   0.498   0.160   3.539 -0.8352  0.2474  0.1310
  163HFI     C2 2436   0.366   0.116   3.607  0.3388 -0.5818  0.5948
  163HFI     F1 2437   0.301   0.027   3.535 -0.1621  0.4298 -0.5362
  163HFI     F2 2438   0.283   0.220   3.626  0.1201 -0.2118 -0.0146
  163HFI     F3 2439   0.392   0.060   3.729 -0.2689  0.3289  0.5436
  163HFI     C3 2440   0.479   0.194   3.385 -0.1123 -0.2003 -0.6178
  163HFI     F4 2441   0.354   0.238   3.361 -0.3526  0.0082 -0.2692
  163HFI     F5 2442   0.492   0.086   3.311  0.3683  0.0237 -0.2376
  163HFI     F6 2443   0.574   0.285   3.338 -0.5004 -0.5579  0.0920
  163HFI     H1 2444   0.584  -0.027   3.533 -1.3932  0.2285 -0.0161
  163HFI     H2 2445   0.522   0.257   3.586 -0.1875  0.4926 -0.6980
  164HFI     O1 2446   1.273   2.621   1.337 -0.5940 -0.3509  0.6725
  164HFI     C1 2447   1.166   2.578   1.424 -0.4488 -0.2213  0.4539
  164HFI     C2 2448   1.104   2.696   1.501 -0.1807  0.1645  0.8028
  164HFI     F1 2449   1.091   2.801   1.413 -0.3168 -0.7811  0.0733
  164HFI     F2 2450   1.196   2.743   1.589 -0.1615  0.0386  0.1386
  164HFI     F3 2451   0.983   2.671   1.564  0.0995 -0.1097 -0.2088
  164HFI     C3 2452   1.192   2.449   1.507 -0.7152  0.3559 -0.4592
  164HFI     F4 2453   1.246   2.356   1.431 -0.2895  0.0454  0.3163
  164HFI     F5 2454   1.081   2.398   1.563  0.3957 -0.1584 -0.1953
  164HFI     F6 2455   1.283   2.467   1.602 -0.1344  0.4460  0.4085
  164HFI     H1 2456   1.314   2.698   1.380  1.6103 -2.2073  1.9829
  164HFI     H2 2457   1.086   2.543   1.358 -1.6473  0.3034  1.6142
  165HFI     O1 2458   2.140   3.357   3.215 -0.0065 -0.1377 -0.0406
  165HFI     C1 2459   2.057   3.238   3.242 -0.0212  0.2815 -0.5248
  165HFI     C2 2460   2.147   3.129   3.303 -0.2705 -0.6794  0.0239
  165HFI     F1 2461   2.246   3.082   3.226 -0.5030 -0.1764 -0.3284
  165HFI     F2 2462   2.074   3.012   3.339  0.4439 -0.4333  0.1079
  165HFI     F3 2463   2.208   3.170   3.411 -0.2150  0.0978  0.0045
  165HFI     C3 2464   1.984   3.183   3.113 -0.4363 -0.2167 -0.6388
  165HFI     F4 2465   1.902   3.077   3.129 -0.2505  0.4078 -0.2610
  165HFI     F5 2466   2.065   3.151   3.016  0.2113 -0.3064  0.1463
  165HFI     F6 2467   1.903   3.284   3.061  0.2727 -0.4189  0.5567
  165HFI     H1 2468   2.220   3.322   3.171 -0.3242 -0.9623  0.0291
  165HFI     H2 2469   1.985   3.269   3.320  0.4492  1.2726 -0.4802
  166HFI     O1 2470   1.681   3.111   2.840 -0.0697  0.0198 -0.0302
  166HFI     C1 2471   1.633   3.214   2.752  0.4715 -0.6850 -0.0965
  166HFI     C2 2472   1.666   3.356   2.813  0.4808  0.5844 -0.6155
  166HFI     F1 2473   1.595   3.382   2.928  0.2155  0.2020 -0.0764
  166HFI     F2 2474   1.634   3.450   2.719  0.6144 -0.5860  0.2612
  166HFI     F3 2475   1.792   3.379   2.838  0.7716 -0.4047  0.4586
  166HFI     C3 2476   1.474   3.205   2.726 -0.3158  0.0337  0.0969
  166HFI     F4 2477   1.433   3.301   2.642 -0.4577  0.4677 -0.4874
  166HFI     F5 2478   1.403   3.211   2.840  0.0867 -0.3057  0.4249
  166HFI     F6 2479   1.450   3.092   2.665  1.0445 -0.4793 -0.1000
  166HFI     H1 2480   1.620   3.103   2.915  0.8610 -0.9091  0.6406
  166HFI     H2 2481   1.682   3.200   2.655  0.2645  1.2942 -0.5173
  167HFI     O1 2482   1.116   2.832   3.699  0.0252  0.6146 -0.2513
  167HFI     C1 2483   0.986   2.796   3.633  0.3028 -0.7001 -0.2524
  167HFI     C2 2484   0.996   2.732   3.492  0.0154 -0.2285  0.0507
  167HFI     F1 2485   1.042   2.820   3.403  0.3783  0.3808  0.0106
  167HFI     F2 2486   0.882   2.677   3.444 -0.0675  0.8351  0.1019
  167HFI     F3 2487   1.084   2.631   3.497 -0.1149  0.3859 -0.3888
  167HFI     C3 2488   0.887   2.915   3.649  0.4856 -0.0902 -0.3640
  167HFI     F4 2489   0.774   2.894   3.579 -1.0092 -0.0070  0.4041
  167HFI     F5 2490   0.933   3.032   3.611 -0.0286  0.5770 -0.0987
  167HFI     F6 2491   0.846   2.931   3.781 -0.1810 -0.2878  0.3960
  167HFI     H1 2492   1.111   2.928   3.712 -1.6800  0.5197 -0.1275
  167HFI     H2 2493   0.935   2.715   3.685  0.2713 -0.6156 -0.1504
  168HFI     O1 2494   2.944   1.752   3.320 -0.1983 -0.4629  0.0581
  168HFI     C1 2495   3.014   1.636   3.262 -0.8681 -0.0618 -0.3812
  168HFI     C2 2496   3.086   1.650   3.128  0.0718 -0.0739 -0.1683
  168HFI     F1 2497   3.201   1.563   3.124 -0.3324 -0.2903 -0.5188
  168HFI     F2 2498   3.123   1.778   3.103  0.3251  0.0813  0.0732
  168HFI     F3 2499   3.006   1.615   3.027 -0.2623  0.6295  0.6175
  168HFI     C3 2500   2.920   1.511   3.265  0.4395 -0.7110 -0.1941
  168HFI     F4 2501   2.817   1.522   3.172  0.4583  0.1388  0.0820
  168HFI     F5 2502   2.871   1.507   3.389  0.3317 -0.1667  0.2553
  168HFI     F6 2503   2.977   1.392   3.245 -0.2768 -0.5418  0.2075
  168HFI     H1 2504   2.878   1.790   3.259 -0.1422  2.2244  1.6004
  168HFI     H2 2505   3.083   1.615   3.344  0.5073  2.4591 -0.8619
  169HFI     O1 2506   0.612   2.141   2.712  0.4530  0.3096  0.2059
  169HFI     C1 2507   0.608   2.092   2.849 -0.2583  0.0029 -0.3695
  169HFI     C2 2508   0.748   2.019   2.884  0.0967  0.1571  0.2908
  169HFI     F1 2509   0.763   1.909   2.810 -0.1937 -0.9252  0.2008
  169HFI     F2 2510   0.758   1.985   3.013  0.7967 -0.2942 -0.4185
  169HFI     F3 2511   0.854   2.105   2.865  0.4658  0.1810  0.4551
  169HFI     C3 2512   0.486   2.005   2.883 -0.0008 -0.1427 -0.0622
  169HFI     F4 2513   0.480   1.889   2.819  0.5281 -0.1040  0.9122
  169HFI     F5 2514   0.375   2.079   2.853  0.7526  0.5233 -0.1092
  169HFI     F6 2515   0.480   1.980   3.019  0.3735 -0.5062  0.1299
  169HFI     H1 2516   0.584   2.066   2.657  1.7463  0.5331 -0.7715
  169HFI     H2 2517   0.594   2.182   2.910 -1.4616  1.0657 -2.1441
  170HFI     O1 2518   3.285   0.835   2.997  0.2587  1.1670  0.1530
  170HFI     C1 2519   3.218   0.810   3.123 -0.2771  0.4765  0.0015
  170HFI     C2 2520   3.176   0.659   3.143  1.0220  0.3086 -0.0251
  170HFI     F1 2521   3.278   0.583   3.141 -0.0459 -0.0657 -0.3912
  170HFI     F2 2522   3.105   0.622   3.034 -0.2555 -0.2156 -0.0216
  170HFI     F3 2523   3.095   0.629   3.249  0.0901  0.1336  0.4022
  170HFI     C3 2524   3.098   0.905   3.150  0.5530 -0.2374 -0.1586
  170HFI     F4 2525   3.126   1.035   3.134  0.3392  0.2137  0.1027
  170HFI     F5 2526   3.042   0.896   3.275  0.3671 -0.0575  0.0516
  170HFI     F6 2527   3.006   0.885   3.054 -0.3454 -0.1793 -0.3592
  170HFI     H1 2528   3.223   0.813   2.926  1.7583  1.2617 -1.1911
  170HFI     H2 2529   3.290   0.827   3.204  1.1519  1.1480 -1.4013
  171HFI     O1 2530   3.300   2.470   2.585  0.1373  0.5998  0.6704
  171HFI     C1 2531   3.308   2.356   2.677 -0.6003  0.0547  0.7860
  171HFI     C2 2532   3.175   2.266   2.691  0.5351 -0.4712  0.7636
  171HFI     F1 2533   3.071   2.341   2.725  0.4318 -0.5608  0.5839
  171HFI     F2 2534   3.183   2.164   2.776 -0.1098 -0.0279 -0.6036
  171HFI     F3 2535   3.151   2.212   2.566 -0.1416  0.5700 -0.0576
  171HFI     C3 2536   3.370   2.396   2.811 -0.3147  0.0518 -0.3159
  171HFI     F4 2537   3.443   2.509   2.797  0.0194  0.2826  0.5531
  171HFI     F5 2538   3.458   2.297   2.850 -0.0264  0.5841  0.1677
  171HFI     F6 2539   3.285   2.405   2.920 -0.6732 -0.0480 -0.0485
  171HFI     H1 2540   3.359   2.536   2.625 -1.3462  2.2328  0.2440
  171HFI     H2 2541   3.374   2.276   2.640 -1.4853 -0.2606 -0.1293
  172HFI     O1 2542   2.177   0.526   2.362 -0.2627 -0.0480  0.2615
  172HFI     C1 2543   2.055   0.550   2.284 -0.0214 -0.3981  0.0167
  172HFI     C2 2544   2.003   0.699   2.291 -0.0747 -0.3737 -0.3888
  172HFI     F1 2545   2.087   0.798   2.245 -0.0481 -0.2508 -0.8394
  172HFI     F2 2546   1.980   0.727   2.421 -0.0636 -0.3932 -0.2589
  172HFI     F3 2547   1.891   0.712   2.226 -0.1933 -0.4217 -0.4532
  172HFI     C3 2548   1.943   0.445   2.322  0.4230 -0.1598  0.0484
  172HFI     F4 2549   1.868   0.415   2.218  0.2118  0.1969  0.2777
  172HFI     F5 2550   1.863   0.480   2.425  0.1346 -0.4181  0.5539
  172HFI     F6 2551   2.012   0.335   2.361 -0.1615  0.4056  0.1487
  172HFI     H1 2552   2.196   0.431   2.357  1.5535  0.2101  1.8012
  172HFI     H2 2553   2.073   0.523   2.180 -1.6704  0.6870 -0.5817
  173HFI     O1 2554   3.397   2.559   1.580  0.2605  0.3701  0.2085
  173HFI     C1 2555   3.348   2.641   1.470  0.6850  0.4005  0.7180
  173HFI     C2 2556   3.278   2.553   1.357  1.3013 -0.1251 -0.1765
  173HFI     F1 2557   3.245   2.636   1.258 -0.2778  0.3317  0.6593
  173HFI     F2 2558   3.166   2.500   1.405  0.1830  0.2438  0.2414
  173HFI     F3 2559   3.360   2.459   1.308 -0.3409 -0.1013  0.2638
  173HFI     C3 2560   3.461   2.726   1.419 -0.3033  0.3868  0.1193
  173HFI     F4 2561   3.546   2.654   1.342  0.0118 -0.1810 -0.3009
  173HFI     F5 2562   3.536   2.784   1.520  0.2117  0.1111 -0.7382
  173HFI     F6 2563   3.417   2.831   1.345  0.0497 -0.0645  0.6277
  173HFI     H1 2564   3.468   2.502   1.547  0.4391  1.0836 -0.6688
  173HFI     H2 2565   3.271   2.708   1.510 -0.2209 -0.6204  0.7274
  174HFI     O1 2566   2.335   1.049   2.529 -0.3573  0.3851  0.1362
  174HFI     C1 2567   2.319   1.025   2.391  1.5344 -0.3952 -0.2923
  174HFI     C2 2568   2.400   0.900   2.339  0.0373  0.0432  0.0558
  174HFI     F1 2569   2.535   0.908   2.376  0.6599 -0.4743  0.7478
  174HFI     F2 2570   2.398   0.880   2.208  0.2129 -0.3646  0.4576
  174HFI     F3 2571   2.345   0.786   2.393 -0.5411 -0.0720  0.1672
  174HFI     C3 2572   2.355   1.147   2.308  0.2677  0.4422 -0.3751
  174HFI     F4 2573   2.490   1.172   2.310 -0.0331  0.1148 -0.4125
  174HFI     F5 2574   2.304   1.265   2.371  0.1044  0.5626  0.3361
  174HFI     F6 2575   2.313   1.138   2.177  0.1223 -0.1804  0.0149
  174HFI     H1 2576   2.335   1.144   2.549 -2.8837  0.5306 -0.3802
  174HFI     H2 2577   2.212   1.006   2.373  0.9566  2.3283 -0.0009
  175HFI     O1 2578   1.413   1.517   2.422 -0.2217  0.6856  0.2433
  175HFI     C1 2579   1.382   1.659   2.415  0.2613  0.4652  0.2591
  175HFI     C2 2580   1.291   1.707   2.530  0.9839  0.5414 -0.5696
  175HFI     F1 2581   1.352   1.670   2.646  0.5033 -0.0820  0.3307
  175HFI     F2 2582   1.171   1.639   2.528 -0.4562 -0.2077  0.3280
  175HFI     F3 2583   1.264   1.838   2.536  0.7283 -0.2658  0.2709
  175HFI     C3 2584   1.339   1.695   2.270  0.8861 -0.0794 -0.1156
  175HFI     F4 2585   1.322   1.831   2.248 -0.2693  0.1081  0.5519
  175HFI     F5 2586   1.224   1.634   2.246  0.0728  0.4332 -0.1221
  175HFI     F6 2587   1.430   1.648   2.180  0.0277  0.5888 -0.1826
  175HFI     H1 2588   1.329   1.471   2.405 -0.5285  2.4671 -3.6482
  175HFI     H2 2589   1.479   1.709   2.421 -0.5524  1.8294  2.3593
  176HFI     O1 2590   2.420   1.294   2.677 -0.2631 -0.2296 -0.0985
  176HFI     C1 2591   2.376   1.354   2.806 -0.0905 -0.3305  0.0088
  176HFI     C2 2592   2.354   1.511   2.796 -0.1567 -0.3768 -0.1386
  176HFI     F1 2593   2.313   1.564   2.915  0.2125 -0.0590 -0.4975
  176HFI     F2 2594   2.257   1.545   2.707  0.6154  0.0514 -0.6076
  176HFI     F3 2595   2.465   1.571   2.753  0.2175 -0.1734 -0.1046
  176HFI     C3 2596   2.465   1.309   2.924 -0.2890  0.1110  1.0098
  176HFI     F4 2597   2.426   1.360   3.044 -0.3480  0.0702  0.1622
  176HFI     F5 2598   2.587   1.347   2.903 -0.3733 -0.3051 -0.3946
  176HFI     F6 2599   2.475   1.171   2.928 -0.1111 -0.4511 -0.1899
  176HFI     H1 2600   2.517   1.292   2.674 -0.2384 -1.2449  0.7839
  176HFI     H2 2601   2.280   1.307   2.832 -1.0609  1.9378  0.6861
  177HFI     O1 2602   0.554   1.450   2.739  0.5073 -0.1563 -0.0317
  177HFI     C1 2603   0.463   1.445   2.627  0.1005 -0.5444 -1.0438
  177HFI     C2 2604   0.491   1.546   2.514  0.3339  0.3906  0.2750
  177HFI     F1 2605   0.394   1.540   2.416  0.0883 -0.0757 -0.0708
  177HFI     F2 2606   0.613   1.527   2.464  0.1284  0.5921  0.7419
  177HFI     F3 2607   0.495   1.675   2.558  0.3828  0.3812  0.2481
  177HFI     C3 2608   0.320   1.466   2.680  0.2535  0.5131  0.7777
  177HFI     F4 2609   0.228   1.432   2.591 -0.0255 -0.0146  0.4671
  177HFI     F5 2610   0.305   1.591   2.714 -0.3931 -0.3294 -0.1381
  177HFI     F6 2611   0.304   1.396   2.790  0.1562 -0.4840  0.1406
  177HFI     H1 2612   0.501   1.426   2.817 -0.3201  0.3833 -0.4281
  177HFI     H2 2613   0.456   1.346   2.581 -0.6644 -0.9499 -0.0773
  178HFI     O1 2614   1.765   1.360   1.061 -0.1923  0.7260  0.1698
  178HFI     C1 2615   1.834   1.276   0.968 -0.2452 -0.8584  0.0608
  178HFI     C2 2616   1.779   1.291   0.823 -0.0622 -0.6127  0.4664
  178HFI     F1 2617   1.743   1.421   0.800 -0.6324 -0.3992  0.4263
  178HFI     F2 2618   1.668   1.216   0.809 -0.8123  0.1669 -0.2511
  178HFI     F3 2619   1.861   1.258   0.731  0.2143  0.5701 -0.0013
  178HFI     C3 2620   1.838   1.123   1.012 -0.1861 -0.1494  0.1568
  178HFI     F4 2621   1.898   1.056   0.909  0.4205 -0.2560 -0.0152
  178HFI     F5 2622   1.712   1.075   1.032  0.2056 -0.2426 -0.1119
  178HFI     F6 2623   1.907   1.107   1.124 -0.1213  0.2841  0.6895
  178HFI     H1 2624   1.674   1.326   1.071  0.4124 -1.0799 -0.2812
  178HFI     H2 2625   1.940   1.303   0.968 -0.3093 -0.5371 -1.6734
  179HFI     O1 2626   0.387   0.577   3.190  0.2232 -0.1265 -0.6458
  179HFI     C1 2627   0.423   0.678   3.290  1.0050  0.2411  0.7087
  179HFI     C2 2628   0.546   0.628   3.373 -0.2797  0.1186 -0.6677
  179HFI     F1 2629   0.645   0.602   3.285 -0.6288 -0.3357  0.2255
  179HFI     F2 2630   0.517   0.520   3.450  0.1425 -0.2573  0.4159
  179HFI     F3 2631   0.593   0.722   3.454  0.4972  0.1283 -0.2422
  179HFI     C3 2632   0.306   0.738   3.376  0.1659 -0.2826  0.4107
  179HFI     F4 2633   0.253   0.644   3.451  0.2245 -0.2728  0.2449
  179HFI     F5 2634   0.215   0.793   3.298  0.1187 -0.0273  0.0815
  179HFI     F6 2635   0.354   0.832   3.458  0.5489 -0.4755 -0.1688
  179HFI     H1 2636   0.466   0.524   3.169  0.4486 -0.5192  1.1739
  179HFI     H2 2637   0.464   0.765   3.238 -2.3779  0.5032 -1.6998
  180HFI     O1 2638   0.395   1.887   0.900  0.2877 -0.1690 -0.0707
  180HFI     C1 2639   0.470   1.901   1.024 -0.2738  0.0697 -0.1081
  180HFI     C2 2640   0.579   1.792   1.047 -0.2011  0.1514 -0.2836
  180HFI     F1 2641   0.529   1.679   1.100  0.6248  0.4485 -0.3906
  180HFI     F2 2642   0.673   1.835   1.127  0.4882 -0.2224  0.1767
  180HFI     F3 2643   0.631   1.775   0.921 -0.0745  0.2720  0.3090
  180HFI     C3 2644   0.366   1.911   1.154  0.0333 -0.2016  0.3867
  180HFI     F4 2645   0.431   1.898   1.270  0.0545  0.5601 -0.4023
  180HFI     F5 2646   0.290   1.800   1.150  0.6307  0.2562 -0.5112
  180HFI     F6 2647   0.295   2.020   1.163  0.3295  0.2992  0.0001
  180HFI     H1 2648   0.439   1.824   0.839 -0.1100  1.1934 -1.8055
  180HFI     H2 2649   0.524   1.997   1.024 -1.6424  0.8782  1.8034
  181HFI     O1 2650   1.438   1.510   3.565  0.1925 -0.1537  0.2371
  181HFI     C1 2651   1.469   1.633   3.635 -0.4444  0.7968  0.1621
  181HFI     C2 2652   1.601   1.611   3.725 -0.3684 -0.3681  0.1361
  181HFI     F1 2653   1.581   1.535   3.830  0.0946 -0.4949  0.1719
  181HFI     F2 2654   1.650   1.722   3.775 -0.2088  0.1683  0.3383
  181HFI     F3 2655   1.700   1.557   3.655  0.1044  0.9163  0.5706
  181HFI     C3 2656   1.347   1.689   3.708 -0.2638  0.1112 -0.1425
  181HFI     F4 2657   1.297   1.606   3.802 -0.2158 -0.2300  0.0356
  181HFI     F5 2658   1.247   1.712   3.628 -0.2485 -0.4451 -0.2751
  181HFI     F6 2659   1.368   1.810   3.764 -0.1345  0.0118  0.1318
  181HFI     H1 2660   1.524   1.486   3.525  0.4957 -0.3223  0.9922
  181HFI     H2 2661   1.492   1.708   3.558  0.8383  1.9745  1.6614
  182HFI     O1 2662   2.860   1.327   3.682 -0.4378 -0.2825  0.3520
  182HFI     C1 2663   2.944   1.399   3.777 -0.5523  0.4974 -0.4557
  182HFI     C2 2664   3.039   1.496   3.698  0.1481  0.4045 -0.1530
  182HFI     F1 2665   3.104   1.426   3.603 -0.2826 -0.2866 -0.3832
  182HFI     F2 2666   3.142   1.554   3.762 -0.1012  0.1486  0.5100
  182HFI     F3 2667   2.975   1.593   3.639 -0.5895 -0.1302  0.3139
  182HFI     C3 2668   3.012   1.299   3.877 -0.5098  0.3798 -1.2573
  182HFI     F4 2669   3.122   1.350   3.938 -0.0228 -0.0963 -0.9051
  182HFI     F5 2670   3.057   1.181   3.816 -0.0281  0.2858  0.2665
  182HFI     F6 2671   2.920   1.258   3.965 -0.1597  0.0584 -0.0030
  182HFI     H1 2672   2.872   1.368   3.595  0.1592 -0.0561  0.5340
  182HFI     H2 2673   2.886   1.464   3.844 -0.8061 -0.3027  0.1120
  183HFI     O1 2674   2.652   3.250   1.182  0.1120  0.1690 -0.4388
  183HFI     C1 2675   2.608   3.186   1.059 -0.4319 -0.2503  0.5843
  183HFI     C2 2676   2.458   3.125   1.068  0.0135  0.4060  0.0923
  183HFI     F1 2677   2.419   3.096   0.944  0.4532 -0.0375  0.1088
  183HFI     F2 2678   2.376   3.213   1.129  0.1496  0.0640  0.2778
  183HFI     F3 2679   2.458   3.010   1.141  0.3263 -0.1187  0.0654
  183HFI     C3 2680   2.717   3.102   0.985  0.6598  0.2157  1.0914
  183HFI     F4 2681   2.690   2.969   1.002 -0.5429  0.0990  0.2778
  183HFI     F5 2682   2.839   3.126   1.032 -0.6041 -0.5203  0.0665
  183HFI     F6 2683   2.717   3.131   0.854 -0.7543  0.3135 -0.0807
  183HFI     H1 2684   2.749   3.246   1.186  0.2945  1.1272 -2.8341
  183HFI     H2 2685   2.586   3.271   0.993  1.1052  0.0635  0.4629
  184HFI     O1 2686   1.615   0.388   2.496 -0.0748 -0.4817 -0.0591
  184HFI     C1 2687   1.510   0.386   2.391  0.1184  0.1329  0.4093
  184HFI     C2 2688   1.515   0.252   2.303 -0.8524  0.1514  0.2144
  184HFI     F1 2689   1.604   0.268   2.199  0.1163 -0.0467  0.4599
  184HFI     F2 2690   1.395   0.222   2.250  0.3402 -0.4460 -0.1447
  184HFI     F3 2691   1.555   0.146   2.374 -0.0553 -0.0322  0.4496
  184HFI     C3 2692   1.482   0.520   2.318  0.2301  0.2516  0.4296
  184HFI     F4 2693   1.576   0.557   2.233 -0.3257 -0.5056 -0.1264
  184HFI     F5 2694   1.462   0.616   2.404 -0.2947  0.2261  0.0928
  184HFI     F6 2695   1.370   0.505   2.242  0.2120 -0.1383  0.0173
  184HFI     H1 2696   1.699   0.404   2.450  0.8266  2.3093  2.4291
  184HFI     H2 2697   1.415   0.364   2.442 -0.8356  0.6268 -1.1180
  185HFI     O1 2698   0.006   2.163   2.356  0.5907  0.4672  0.6241
  185HFI     C1 2699   0.120   2.079   2.398  0.3161 -0.0794  0.7328
  185HFI     C2 2700   0.234   2.152   2.480  0.7430 -0.7662  0.2815
  185HFI     F1 2701   0.192   2.212   2.594  0.1877  0.1944 -0.0740
  185HFI     F2 2702   0.295   2.251   2.402 -0.2547  0.2828  0.2872
  185HFI     F3 2703   0.331   2.062   2.516  0.2895 -0.3541 -0.8089
  185HFI     C3 2704   0.169   1.980   2.291  0.1861 -0.2511 -0.4231
  185HFI     F4 2705   0.233   1.872   2.346 -0.2668  0.7344 -0.2115
  185HFI     F5 2706   0.248   2.043   2.203  0.3817 -0.0628 -0.1414
  185HFI     F6 2707   0.063   1.930   2.226 -0.0703 -0.0341  0.1932
  185HFI     H1 2708  -0.060   2.106   2.312  0.7582 -0.5621  1.6879
  185HFI     H2 2709   0.074   2.012   2.472  0.0876  1.7616  2.3157
  186HFI     O1 2710   0.670   1.141   2.482  0.0712 -0.1383  0.5955
  186HFI     C1 2711   0.560   1.077   2.409 -1.1205  0.6506  0.8310
  186HFI     C2 2712   0.596   0.927   2.364 -0.0846 -0.3809 -0.2033
  186HFI     F1 2713   0.481   0.848   2.354 -0.1353  0.6155 -0.2720
  186HFI     F2 2714   0.684   0.878   2.451 -0.5947 -0.0976 -0.3674
  186HFI     F3 2715   0.659   0.921   2.248  0.4850  0.8888 -0.4058
  186HFI     C3 2716   0.512   1.160   2.290 -0.1784  0.6091 -0.2181
  186HFI     F4 2717   0.468   1.280   2.328 -0.4021  0.2418  0.4840
  186HFI     F5 2718   0.406   1.098   2.229 -0.0197  0.3010  0.5560
  186HFI     F6 2719   0.605   1.188   2.197 -0.5066 -0.6723 -0.3611
  186HFI     H1 2720   0.752   1.090   2.489 -1.1701 -2.0617  1.8461
  186HFI     H2 2721   0.471   1.062   2.472 -2.5777 -0.2058 -1.3843
  187HFI     O1 2722   0.447   3.258   2.535  0.0505 -0.2995 -0.5880
  187HFI     C1 2723   0.506   3.143   2.478 -0.3052  0.1314 -0.1315
  187HFI     C2 2724   0.624   3.082   2.559 -0.3513 -0.2328  0.2258
  187HFI     F1 2725   0.650   2.954   2.522  0.1675 -0.7359 -0.2630
  187HFI     F2 2726   0.596   3.080   2.692 -0.1279 -0.3741  0.1938
  187HFI     F3 2727   0.742   3.146   2.538 -0.1268  0.4063  0.1434
  187HFI     C3 2728   0.537   3.147   2.325  0.2272 -0.7177  0.5783
  187HFI     F4 2729   0.435   3.208   2.265 -0.8833 -0.3655 -0.0318
  187HFI     F5 2730   0.537   3.024   2.278  0.2134  0.4929 -0.0455
  187HFI     F6 2731   0.651   3.211   2.290  0.3810 -0.3321 -0.0534
  187HFI     H1 2732   0.506   3.299   2.601 -0.0209 -1.0445 -0.0596
  187HFI     H2 2733   0.429   3.065   2.486 -1.1401  1.0152  0.5809
  188HFI     O1 2734   1.812   2.075   2.477 -0.3969  0.1022  0.0458
  188HFI     C1 2735   1.862   1.981   2.363  0.0152 -0.3075  0.2929
  188HFI     C2 2736   1.960   2.055   2.270 -0.0158  0.2299  0.3600
  188HFI     F1 2737   2.047   2.137   2.344  0.0684 -0.3181  0.7502
  188HFI     F2 2738   1.895   2.141   2.179 -0.7309  0.2362  0.5715
  188HFI     F3 2739   2.037   1.973   2.191  0.2693 -0.1284  0.2017
  188HFI     C3 2740   1.743   1.916   2.296  0.1795  0.1350  0.3465
  188HFI     F4 2741   1.774   1.819   2.210 -0.1655 -0.1011  0.4735
  188HFI     F5 2742   1.676   2.015   2.226 -0.3234  0.1491  0.1736
  188HFI     F6 2743   1.664   1.857   2.387  0.5471  0.4757 -0.1395
  188HFI     H1 2744   1.744   2.136   2.445 -0.9178 -0.9002 -0.7690
  188HFI     H2 2745   1.928   1.904   2.405  2.6947  1.0066 -1.3365
  189HFI     O1 2746   0.089   2.787   3.352 -0.0149  0.1890 -0.3342
  189HFI     C1 2747  -0.016   2.882   3.350 -0.4269  0.0904  0.4215
  189HFI     C2 2748  -0.093   2.869   3.215  0.5208  0.0237 -0.2989
  189HFI     F1 2749  -0.018   2.898   3.113 -0.3177  0.5038  0.4079
  189HFI     F2 2750  -0.202   2.947   3.205 -0.0407 -0.2890  0.2165
  189HFI     F3 2751  -0.137   2.745   3.198 -0.2966  0.1131  0.1640
  189HFI     C3 2752   0.042   3.023   3.376  0.1633 -0.0159 -0.5612
  189HFI     F4 2753  -0.060   3.111   3.365 -0.4466 -0.2209  0.2282
  189HFI     F5 2754   0.133   3.050   3.283 -0.2792 -0.8253  0.7661
  189HFI     F6 2755   0.095   3.034   3.499  0.5718  0.0035 -0.1056
  189HFI     H1 2756   0.155   2.815   3.286 -1.0501  1.0240 -1.0191
  189HFI     H2 2757  -0.094   2.863   3.425 -1.7238 -0.1149 -0.9539
  190HFI     O1 2758   0.383   3.370   3.093  0.3467  0.3516 -0.3330
  190HFI     C1 2759   0.279   3.281   3.038 -0.1153 -0.3335  0.1115
  190HFI     C2 2760   0.289   3.266   2.883  0.6218 -0.1272 -0.0019
  190HFI     F1 2761   0.250   3.376   2.809 -0.0092 -0.3373  0.0299
  190HFI     F2 2762   0.204   3.167   2.836  0.1989 -0.6860 -0.0193
  190HFI     F3 2763   0.415   3.237   2.842  0.4636 -0.4480 -0.0110
  190HFI     C3 2764   0.140   3.311   3.086  0.3001 -0.3100  0.7885
  190HFI     F4 2765   0.144   3.340   3.218 -0.4181  0.0608  0.0430
  190HFI     F5 2766   0.045   3.219   3.061  0.0987 -0.3481  0.2321
  190HFI     F6 2767   0.088   3.419   3.027 -0.0843 -0.1635 -0.1441
  190HFI     H1 2768   0.370   3.462   3.063 -0.7730 -0.2658 -1.8104
  190HFI     H2 2769   0.301   3.180   3.073  1.6256 -0.6105 -1.6785
  191HFI     O1 2770   0.615   2.409   0.305 -0.9503 -0.2040  0.2972
  191HFI     C1 2771   0.532   2.494   0.393 -1.1993  0.2224 -0.8524
  191HFI     C2 2772   0.480   2.418   0.525  0.1002  0.5513  0.2060
  191HFI     F1 2773   0.447   2.502   0.627 -0.2213  0.0720  0.5595
  191HFI     F2 2774   0.570   2.330   0.567 -0.2841 -0.7443 -0.5753
  191HFI     F3 2775   0.367   2.352   0.498 -0.2666  0.0032  0.0863
  191HFI     C3 2776   0.423   2.575   0.321 -0.1776 -0.3301  0.3180
  191HFI     F4 2777   0.337   2.625   0.418  0.3111  0.1844 -0.1145
  191HFI     F5 2778   0.342   2.501   0.241  0.0512  0.4588  0.0481
  191HFI     F6 2779   0.464   2.680   0.251 -0.1041  0.3371 -0.0733
  191HFI     H1 2780   0.560   2.335   0.276  0.4311 -1.5167  0.9385
  191HFI     H2 2781   0.602   2.567   0.436 -0.3206 -2.7009  2.8822
  192HFI     O1 2782   2.630   1.327   1.300 -0.0407  0.2224  0.0452
  192HFI     C1 2783   2.656   1.275   1.432  0.0613  0.3330 -0.0990
  192HFI     C2 2784   2.517   1.242   1.499  0.1447  0.3857 -0.1851
  192HFI     F1 2785   2.427   1.194   1.417 -0.8789  0.0396 -0.3948
  192HFI     F2 2786   2.460   1.354   1.545 -0.1992 -0.4884  0.4782
  192HFI     F3 2787   2.536   1.171   1.605  0.1050  0.1245  0.1626
  192HFI     C3 2788   2.766   1.338   1.518 -0.5779 -0.2235  0.2914
  192HFI     F4 2789   2.806   1.263   1.628 -0.2146 -0.6451 -0.1264
  192HFI     F5 2790   2.723   1.454   1.572 -0.4519 -0.6377  0.2454
  192HFI     F6 2791   2.875   1.358   1.449 -0.1500  0.2729  0.2853
  192HFI     H1 2792   2.584   1.411   1.317 -0.7157 -0.1432  0.0365
  192HFI     H2 2793   2.694   1.173   1.414 -1.0993  0.4005 -3.2034
  193HFI     O1 2794   0.944   3.315   2.739 -0.8808 -0.0651  0.3048
  193HFI     C1 2795   0.921   3.437   2.814 -0.2119  0.2398  0.8785
  193HFI     C2 2796   0.991   3.431   2.948 -0.0080  0.4691  0.3902
  193HFI     F1 2797   0.952   3.333   3.024  0.2660 -0.0803  0.4086
  193HFI     F2 2798   0.989   3.546   3.023  0.0072  0.2622  0.0913
  193HFI     F3 2799   1.119   3.397   2.937 -0.8556 -0.1783 -0.3792
  193HFI     C3 2800   0.770   3.470   2.814 -0.3190 -0.1584 -0.0856
  193HFI     F4 2801   0.714   3.473   2.690 -0.2354  0.1506  0.2816
  193HFI     F5 2802   0.745   3.586   2.884  0.2212  0.5124  0.2272
  193HFI     F6 2803   0.716   3.369   2.883  0.1107  0.1393  0.0192
  193HFI     H1 2804   0.937   3.237   2.796 -0.4666 -0.8138 -0.6583
  193HFI     H2 2805   0.968   3.523   2.764 -1.3905  0.0645 -0.5728
  194HFI     O1 2806   3.255   1.682   0.854  0.3226  0.0808 -0.8218
  194HFI     C1 2807   3.212   1.715   0.997  0.2414  0.0669 -0.4355
  194HFI     C2 2808   3.072   1.794   0.994 -0.2080 -0.4190 -0.1795
  194HFI     F1 2809   3.095   1.922   0.946  0.0219 -0.2757 -0.5910
  194HFI     F2 2810   3.006   1.807   1.108 -0.3376 -0.0838 -0.0560
  194HFI     F3 2811   2.997   1.729   0.901  0.1767 -0.1068 -0.3656
  194HFI     C3 2812   3.321   1.784   1.074  1.1432 -0.7887 -0.2243
  194HFI     F4 2813   3.424   1.703   1.075  0.3067 -0.5220 -0.3659
  194HFI     F5 2814   3.278   1.820   1.203  0.5344  0.3300 -0.5229
  194HFI     F6 2815   3.356   1.894   1.010 -0.6604 -0.6674 -0.0731
  194HFI     H1 2816   3.332   1.622   0.850 -0.8487 -1.3414 -2.5008
  194HFI     H2 2817   3.189   1.625   1.055 -1.2778  2.3159  2.5955
  195HFI     O1 2818   1.360   0.488   3.504  0.5760 -0.8526  0.0412
  195HFI     C1 2819   1.372   0.503   3.648 -0.4679 -0.0031  0.0454
  195HFI     C2 2820   1.364   0.362   3.717  0.7240  1.0512  0.2467
  195HFI     F1 2821   1.238   0.308   3.711 -0.1831  0.0928 -0.8571
  195HFI     F2 2822   1.402   0.363   3.846  0.4155  0.1142  0.2132
  195HFI     F3 2823   1.449   0.272   3.655  0.2472  0.8880 -0.4709
  195HFI     C3 2824   1.275   0.609   3.708 -0.5286  0.0707  0.3149
  195HFI     F4 2825   1.289   0.728   3.641  0.0154  0.4468  0.0687
  195HFI     F5 2826   1.304   0.627   3.842 -0.7494  0.1379  0.1966
  195HFI     F6 2827   1.144   0.572   3.698  0.1696  0.5156  0.1687
  195HFI     H1 2828   1.332   0.570   3.461  2.9632 -1.2001 -2.3469
  195HFI     H2 2829   1.474   0.538   3.669  0.3612 -2.3462  0.0190
  196HFI     O1 2830   2.340   1.877   2.202 -0.4564  0.0638  0.1439
  196HFI     C1 2831   2.347   1.795   2.321 -0.9631 -0.1607 -0.0003
  196HFI     C2 2832   2.266   1.662   2.316  0.1349  0.4563  0.7714
  196HFI     F1 2833   2.317   1.576   2.225 -0.6824  0.2555  0.4205
  196HFI     F2 2834   2.138   1.697   2.275 -0.0342 -0.5246 -0.9766
  196HFI     F3 2835   2.260   1.600   2.435  0.3357  0.3733  0.3369
  196HFI     C3 2836   2.313   1.880   2.443  0.4486 -0.5731  0.4854
  196HFI     F4 2837   2.352   1.819   2.555  0.1015  0.0138  0.3024
  196HFI     F5 2838   2.185   1.905   2.455  0.6738 -0.4415 -0.3661
  196HFI     F6 2839   2.367   2.006   2.442 -0.6449 -0.2173 -0.1515
  196HFI     H1 2840   2.408   1.946   2.201  0.0857 -0.4542  1.0054
  196HFI     H2 2841   2.446   1.749   2.322 -0.6626  0.4364 -1.5459
  197HFI     O1 2842   0.195   0.339   3.045 -0.3685  0.2168 -0.2024
  197HFI     C1 2843   0.199   0.356   2.898 -0.4191 -1.0196  0.1897
  197HFI     C2 2844   0.325   0.283   2.836 -0.4665 -0.1854  0.8621
  197HFI     F1 2845   0.294   0.248   2.710  0.4258  0.5662 -0.1149
  197HFI     F2 2846   0.366   0.170   2.897  0.1276  0.2471 -0.2448
  197HFI     F3 2847   0.435   0.363   2.829 -0.3832 -0.4196  0.2203
  197HFI     C3 2848   0.194   0.498   2.853 -0.2746 -0.3118 -0.2286
  197HFI     F4 2849   0.082   0.557   2.904  0.2265 -0.1087  0.4308
  197HFI     F5 2850   0.181   0.498   2.718 -0.2965  0.7460 -0.2566
  197HFI     F6 2851   0.302   0.568   2.898  0.2291 -0.1912  0.2426
  197HFI     H1 2852   0.195   0.423   3.094 -0.3583  0.7476 -1.0962
  197HFI     H2 2853   0.110   0.305   2.857 -0.1141 -1.0831 -0.4077
  198HFI     O1 2854   2.213   0.256   3.371 -0.0240  0.1107  0.1490
  198HFI     C1 2855   2.162   0.275   3.502 -0.0088 -0.2524 -0.8920
  198HFI     C2 2856   2.277   0.301   3.610  0.0897  0.4509  0.6374
  198HFI     F1 2857   2.331   0.418   3.568 -0.2868  0.0231  0.0259
  198HFI     F2 2858   2.367   0.206   3.593 -0.0820  0.8592  0.4402
  198HFI     F3 2859   2.249   0.312   3.737  0.4736  0.1765  0.1699
  198HFI     C3 2860   2.071   0.163   3.548  0.0867  0.1453  0.6481
  198HFI     F4 2861   1.992   0.129   3.446 -0.4300 -0.1167 -0.2120
  198HFI     F5 2862   1.988   0.201   3.652 -0.0090  0.5054  0.0065
  198HFI     F6 2863   2.129   0.051   3.584 -0.4629  0.4279 -0.2865
  198HFI     H1 2864   2.148   0.231   3.303  2.5712 -1.7875 -1.7219
  198HFI     H2 2865   2.099   0.365   3.496 -0.6507 -0.6657 -0.4528
  199HFI     O1 2866   2.609   2.831   0.718  0.1155  0.4384 -0.3882
  199HFI     C1 2867   2.645   2.817   0.576  0.0916 -0.0195 -0.3165
  199HFI     C2 2868   2.726   2.684   0.557 -1.0251  0.0108 -0.1340
  199HFI     F1 2869   2.850   2.699   0.607 -0.3038  0.1254 -0.4335
  199HFI     F2 2870   2.736   2.653   0.426 -0.3786  0.0427 -0.4360
  199HFI     F3 2871   2.674   2.576   0.621  0.2031  1.0715 -0.1166
  199HFI     C3 2872   2.717   2.944   0.515  0.4677 -0.2096  0.1542
  199HFI     F4 2873   2.823   2.978   0.578 -0.0524  0.2146 -0.3254
  199HFI     F5 2874   2.628   3.051   0.513 -0.2209 -0.0969  0.3614
  199HFI     F6 2875   2.748   2.918   0.388 -0.0750  0.1054 -0.1968
  199HFI     H1 2876   2.624   2.919   0.758 -1.2260 -0.2272  1.6782
  199HFI     H2 2877   2.555   2.797   0.516 -1.0144  2.1301  0.5475
  200HFI     O1 2878   2.340   3.403   2.323 -1.0495  0.7948 -0.5455
  200HFI     C1 2879   2.220   3.356   2.251 -0.4861 -0.8339  0.2367
  200HFI     C2 2880   2.113   3.460   2.274  0.0619 -0.3136 -0.2009
  200HFI     F1 2881   1.995   3.431   2.219 -0.1997  0.0323 -0.6038
  200HFI     F2 2882   2.144   3.579   2.224 -0.1573 -0.1810 -0.0094
  200HFI     F3 2883   2.091   3.471   2.410 -0.3264  0.3057 -0.2052
  200HFI     C3 2884   2.175   3.212   2.298 -0.4739  0.6362  0.0759
  200HFI     F4 2885   2.067   3.164   2.223  0.0977  0.0784 -0.0449
  200HFI     F5 2886   2.124   3.209   2.423 -0.3700  0.3454  0.1957
  200HFI     F6 2887   2.277   3.125   2.287 -0.5597 -0.3305  0.3319
  200HFI     H1 2888   2.321   3.401   2.418 -1.6538  2.1382 -0.6184
  200HFI     H2 2889   2.237   3.359   2.143 -0.6048  1.6094  0.2677
  201HFI     O1 2890   2.050   2.591   3.672 -0.2210  0.5190 -0.9754
  201HFI     C1 2891   2.192   2.552   3.665 -0.4463 -0.2996  0.0545
  201HFI     C2 2892   2.240   2.558   3.813  0.3080 -0.2213 -0.4529
  201HFI     F1 2893   2.378   2.537   3.811 -0.1071 -0.2228 -0.2499
  201HFI     F2 2894   2.185   2.460   3.893  0.3168  0.6690 -0.4894
  201HFI     F3 2895   2.214   2.677   3.868 -0.8413 -0.3460  0.0107
  201HFI     C3 2896   2.271   2.641   3.568 -0.0338 -0.6244 -0.6511
  201HFI     F4 2897   2.392   2.596   3.548 -0.0805  0.1643 -0.0617
  201HFI     F5 2898   2.289   2.764   3.611 -0.1103  0.1669 -0.2052
  201HFI     F6 2899   2.206   2.640   3.451 -0.3300  0.1262  0.1241
  201HFI     H1 2900   2.043   2.670   3.727  0.1484 -0.0169 -0.1515
  201HFI     H2 2901   2.205   2.447   3.635 -0.5586 -0.1793 -0.4054
  202HFI     O1 2902   0.815   0.779   2.886 -0.3769  0.3086 -0.2602
  202HFI     C1 2903   0.863   0.692   2.780  0.3866 -0.1545  1.1349
  202HFI     C2 2904   0.796   0.557   2.771  0.5012 -0.8367 -0.4247
  202HFI     F1 2905   0.670   0.566   2.721 -0.2046  0.3631  0.0622
  202HFI     F2 2906   0.787   0.491   2.895  0.2745  0.0613  0.3857
  202HFI     F3 2907   0.866   0.465   2.692  0.4683 -0.3288 -0.1735
  202HFI     C3 2908   1.017   0.686   2.773 -0.2812  0.3342 -0.9590
  202HFI     F4 2909   1.059   0.612   2.671 -0.1229  0.0115  0.1568
  202HFI     F5 2910   1.077   0.630   2.883  0.4036  0.2031 -0.1189
  202HFI     F6 2911   1.057   0.809   2.762 -0.0276 -0.0994 -0.3658
  202HFI     H1 2912   0.859   0.771   2.972 -0.1825 -1.0752 -0.4875
  202HFI     H2 2913   0.842   0.740   2.684  4.0040 -2.6551 -1.0210
  203HFI     O1 2914   2.423   1.629   1.353 -0.7070 -0.2378 -0.7067
  203HFI     C1 2915   2.513   1.745   1.366  0.1137  0.3113  0.2997
  203HFI     C2 2916   2.649   1.734   1.307  0.2368  0.3231 -0.2612
  203HFI     F1 2917   2.725   1.840   1.325 -0.2860  0.5143 -0.1834
  203HFI     F2 2918   2.642   1.699   1.180 -0.8424 -0.4517  0.0499
  203HFI     F3 2919   2.710   1.630   1.366  0.3485  0.1565  0.5520
  203HFI     C3 2920   2.530   1.783   1.518  0.4004  0.6444 -1.1499
  203HFI     F4 2921   2.566   1.904   1.529  0.2834  0.1837 -0.1936
  203HFI     F5 2922   2.620   1.704   1.585 -0.5087  0.4070  0.0638
  203HFI     F6 2923   2.408   1.763   1.581  0.4865  0.1734  0.1844
  203HFI     H1 2924   2.353   1.633   1.422  0.1811  0.5970  0.1701
  203HFI     H2 2925   2.467   1.833   1.319  1.1382  0.7128  0.0224
  204HFI     O1 2926   0.311   2.685   0.821 -0.3205 -0.1114 -0.0446
  204HFI     C1 2927   0.354   2.720   0.957 -0.3395  0.0887 -0.2516
  204HFI     C2 2928   0.428   2.602   1.031 -0.0223  0.0740  0.1763
  204HFI     F1 2929   0.492   2.652   1.139  0.1108 -0.0653 -0.5063
  204HFI     F2 2930   0.531   2.541   0.959  0.3582 -0.2221  0.5541
  204HFI     F3 2931   0.346   2.508   1.076 -0.0897 -0.0261 -0.0878
  204HFI     C3 2932   0.250   2.788   1.041  0.3914  0.0274  0.2530
  204HFI     F4 2933   0.229   2.907   1.001  0.1591  0.1627  0.1989
  204HFI     F5 2934   0.282   2.803   1.171 -0.3646  0.3292  0.1512
  204HFI     F6 2935   0.130   2.726   1.039 -0.1366 -0.3185 -0.0988
  204HFI     H1 2936   0.259   2.603   0.824  1.0112 -0.9359  1.2408
  204HFI     H2 2937   0.433   2.796   0.948  0.0680 -0.2714  0.2395
  205HFI     O1 2938   1.114   0.515   2.358 -0.3787  0.0630 -0.3848
  205HFI     C1 2939   1.022   0.589   2.281 -0.1361  0.2918 -0.4329
  205HFI     C2 2940   1.054   0.741   2.273  0.3079 -0.0123  0.6646
  205HFI     F1 2941   0.961   0.830   2.219  0.2215  0.1681 -0.8174
  205HFI     F2 2942   1.169   0.757   2.200 -0.3330 -0.4082 -0.0935
  205HFI     F3 2943   1.086   0.785   2.392  0.1666  0.4022 -0.3730
  205HFI     C3 2944   0.877   0.566   2.314 -0.1376 -0.5905 -0.5980
  205HFI     F4 2945   0.845   0.437   2.315  0.1001  0.4154 -0.5327
  205HFI     F5 2946   0.789   0.618   2.225  0.1420  0.1794 -0.0013
  205HFI     F6 2947   0.846   0.609   2.444 -0.4920 -0.0557  0.0568
  205HFI     H1 2948   1.073   0.509   2.446 -0.4901  1.0512 -0.3596
  205HFI     H2 2949   1.043   0.561   2.177  2.5832  1.6506 -0.2971
  206HFI     O1 2950   0.068   1.571   0.723  0.1292 -0.5888 -0.1061
  206HFI     C1 2951   0.195   1.498   0.700  0.1436  0.2126 -0.3998
  206HFI     C2 2952   0.273   1.463   0.831  0.7578 -0.6568 -0.3782
  206HFI     F1 2953   0.191   1.413   0.923  0.2176  0.8730  0.1337
  206HFI     F2 2954   0.337   1.575   0.882 -0.1577  0.2235 -0.1034
  206HFI     F3 2955   0.367   1.368   0.816 -0.1435  0.3164  0.3379
  206HFI     C3 2956   0.282   1.560   0.594  0.0220  0.2074 -0.1763
  206HFI     F4 2957   0.333   1.671   0.633  0.2597 -0.1820  0.2807
  206HFI     F5 2958   0.201   1.593   0.489  0.5348 -0.2012 -0.4337
  206HFI     F6 2959   0.378   1.482   0.545  0.3628 -0.6360 -0.3044
  206HFI     H1 2960   0.035   1.609   0.640 -0.0233  0.9260  0.6370
  206HFI     H2 2961   0.164   1.401   0.661 -1.3118  1.6155 -2.8528
  207HFI     O1 2962   2.897   3.194   2.265  0.1223 -0.8995  0.5194
  207HFI     C1 2963   2.858   3.337   2.259  0.1248 -0.3474  0.2696
  207HFI     C2 2964   2.977   3.429   2.311  0.3761  0.4887  0.1074
  207HFI     F1 2965   2.969   3.555   2.268  0.5840 -0.1813 -0.5671
  207HFI     F2 2966   3.090   3.375   2.267  0.4451  0.2228 -0.1125
  207HFI     F3 2967   2.983   3.432   2.443  0.0773 -0.7247  0.2822
  207HFI     C3 2968   2.717   3.357   2.322 -0.6548  0.1779  0.4601
  207HFI     F4 2969   2.621   3.280   2.265 -0.4119 -0.8148  0.1017
  207HFI     F5 2970   2.671   3.483   2.313  0.2578 -0.0416  0.5689
  207HFI     F6 2971   2.712   3.322   2.447  0.1456  0.2302  0.6128
  207HFI     H1 2972   2.992   3.190   2.247 -0.6102 -0.8941 -3.7767
  207HFI     H2 2973   2.841   3.365   2.155  0.4447  0.8736  0.5269
  208HFI     O1 2974   0.572   0.298   2.512  0.2590  0.2907 -0.0389
  208HFI     C1 2975   0.513   0.270   2.379  0.6375  0.0883  0.3307
  208HFI     C2 2976   0.397   0.371   2.331 -0.2529  0.3197 -0.3854
  208HFI     F1 2977   0.288   0.366   2.414 -0.1927 -0.0366 -0.2330
  208HFI     F2 2978   0.351   0.334   2.213 -0.1812 -0.0826  0.3687
  208HFI     F3 2979   0.458   0.492   2.324  0.3979 -0.0946 -0.0889
  208HFI     C3 2980   0.478   0.124   2.370  0.5654  0.2713  0.5032
  208HFI     F4 2981   0.587   0.057   2.406  0.5603  0.1706 -0.7034
  208HFI     F5 2982   0.456   0.089   2.238  0.3861 -0.3510  0.0909
  208HFI     F6 2983   0.364   0.083   2.444 -0.2219 -0.2363  0.3890
  208HFI     H1 2984   0.589   0.394   2.517 -1.5684  0.6010  0.6803
  208HFI     H2 2985   0.595   0.285   2.308 -0.0585 -0.5591 -0.6297
  209HFI     O1 2986   2.529   1.091   0.079  0.3206  0.0125 -0.2971
  209HFI     C1 2987   2.539   1.191  -0.027  0.0468  0.6798 -0.2250
  209HFI     C2 2988   2.545   1.335   0.035 -0.4261  0.4757 -0.4792
  209HFI     F1 2989   2.436   1.364   0.100  0.0440  0.2032 -0.0427
  209HFI     F2 2990   2.582   1.426  -0.053  0.1447  0.4174 -0.0749
  209HFI     F3 2991   2.646   1.343   0.131  0.2310  0.3238  0.5518
  209HFI     C3 2992   2.421   1.176  -0.121  0.0564  0.2314  0.3130
  209HFI     F4 2993   2.303   1.170  -0.065  0.0256 -0.1592 -0.0080
  209HFI     F5 2994   2.436   1.066  -0.194 -0.2094 -0.5135 -0.3093
  209HFI     F6 2995   2.424   1.276  -0.208  0.3114  0.5215 -0.0970
  209HFI     H1 2996   2.570   1.131   0.157 -0.4408 -1.7330  1.0138
  209HFI     H2 2997   2.629   1.180  -0.089  0.4246 -1.2381  0.6179
  210HFI     O1 2998   2.093   0.102   2.865  0.5545 -0.5897 -0.2110
  210HFI     C1 2999   2.059   0.248   2.855 -0.2693  0.2172  0.5418
  210HFI     C2 3000   1.960   0.283   2.962 -0.1753  0.4754 -0.4042
  210HFI     F1 3001   2.023   0.274   3.082  0.5790 -0.2715 -0.0528
  210HFI     F2 3002   1.855   0.204   2.973  0.2593 -0.2995  0.0859
  210HFI     F3 3003   1.913   0.409   2.955 -0.0421 -0.5877 -0.0194
  210HFI     C3 3004   2.020   0.279   2.703 -0.7429  0.4189 -1.0406
  210HFI     F4 3005   2.134   0.262   2.629 -0.1115 -0.2889  0.2228
  210HFI     F5 3006   1.980   0.412   2.684 -0.3977  0.4536  0.1912
  210HFI     F6 3007   1.926   0.195   2.658 -0.3555  0.2474 -0.2031
  210HFI     H1 3008   2.011   0.052   2.850 -0.6301  0.8106  1.3587
  210HFI     H2 3009   2.147   0.312   2.873 -0.3342  1.2865 -2.5665
  211HFI     O1 3010   0.438   1.438   3.040  0.3006 -0.6285 -0.5619
  211HFI     C1 3011   0.533   1.471   3.153  0.5139  0.1992 -0.3204
  211HFI     C2 3012   0.598   1.607   3.127 -0.7212  0.8271  0.4858
  211HFI     F1 3013   0.712   1.624   3.204 -0.5083 -0.3570  0.1681
  211HFI     F2 3014   0.518   1.705   3.176 -0.0574  0.1195 -0.3655
  211HFI     F3 3015   0.616   1.644   2.994  0.1954  0.9356 -0.0571
  211HFI     C3 3016   0.633   1.358   3.180 -0.0164 -0.0298 -0.7816
  211HFI     F4 3017   0.702   1.373   3.296  0.0955  0.4425 -0.1985
  211HFI     F5 3018   0.734   1.348   3.088 -0.2904 -0.2601  0.2574
  211HFI     F6 3019   0.573   1.239   3.181  0.2552  0.0634  0.2931
  211HFI     H1 3020   0.379   1.367   3.070 -0.5597 -0.2934 -1.4576
  211HFI     H2 3021   0.479   1.486   3.247  1.7700  0.1008  0.4194
  212HFI     O1 3022   2.112   0.259   1.321  0.2477 -0.2121  0.1544
  212HFI     C1 3023   2.250   0.242   1.385 -0.3624 -0.3189  0.6237
  212HFI     C2 3024   2.238   0.289   1.530 -0.7062  0.2128  0.3939
  212HFI     F1 3025   2.172   0.408   1.557 -0.0498  0.0874 -0.2075
  212HFI     F2 3026   2.366   0.296   1.585 -0.1988  0.3385 -0.4095
  212HFI     F3 3027   2.165   0.192   1.590  0.1443 -0.1159 -0.6553
  212HFI     C3 3028   2.363   0.310   1.304 -0.9091  0.2663 -0.0114
  212HFI     F4 3029   2.373   0.441   1.336 -0.0315 -0.1228  0.3365
  212HFI     F5 3030   2.344   0.303   1.173 -0.0104 -0.2806 -0.1561
  212HFI     F6 3031   2.485   0.256   1.329  0.2449  0.2898 -0.3726
  212HFI     H1 3032   2.073   0.345   1.342  0.7614  0.0699 -0.0458
  212HFI     H2 3033   2.284   0.138   1.379 -0.4429 -0.3639  0.9730
  213HFI     O1 3034   2.412   3.267   0.010  0.1006  0.3106 -0.6018
  213HFI     C1 3035   2.475   3.151  -0.058 -0.1123  0.8579  0.4985
  213HFI     C2 3036   2.552   3.043   0.036  0.3984  0.4543 -0.3030
  213HFI     F1 3037   2.595   2.944  -0.033 -0.6093  0.0725  0.5382
  213HFI     F2 3038   2.464   2.989   0.125 -0.4866  0.0619 -0.0230
  213HFI     F3 3039   2.653   3.109   0.105  0.4823  0.9348  0.0585
  213HFI     C3 3040   2.560   3.204  -0.173  0.0055  0.0709 -0.4143
  213HFI     F4 3041   2.660   3.286  -0.136  0.1226  0.0103  0.0190
  213HFI     F5 3042   2.479   3.285  -0.257  0.1898 -0.0148  0.6807
  213HFI     F6 3043   2.605   3.108  -0.253 -0.4975 -0.0104  0.6668
  213HFI     H1 3044   2.482   3.334   0.017  1.9735 -1.4264 -2.1835
  213HFI     H2 3045   2.400   3.092  -0.112 -1.1619 -0.9191  3.7523
  214HFI     O1 3046   0.333   2.963   0.400  0.0777  0.1705  0.0563
  214HFI     C1 3047   0.352   2.954   0.550 -0.1773 -0.3803 -0.0040
  214HFI     C2 3048   0.274   3.062   0.622  0.1798  0.9025 -0.7924
  214HFI     F1 3049   0.137   3.069   0.581  0.4085 -0.3821  0.4081
  214HFI     F2 3050   0.324   3.189   0.612 -0.4082  0.4962 -0.0763
  214HFI     F3 3051   0.262   3.037   0.756 -0.5441 -0.4799 -0.0155
  214HFI     C3 3052   0.501   2.942   0.594  0.7225 -0.3948 -0.0203
  214HFI     F4 3053   0.584   2.922   0.486  0.5180 -0.2106  0.2686
  214HFI     F5 3054   0.515   2.829   0.672 -0.3374  0.0438  0.7113
  214HFI     F6 3055   0.541   3.052   0.664  0.2890 -0.3196 -0.3591
  214HFI     H1 3056   0.375   3.044   0.367  1.9666 -0.4585  0.8945
  214HFI     H2 3057   0.309   2.858   0.581  2.1584 -2.2175 -2.2483
  215HFI     O1 3058   2.624   0.507   2.692 -1.1117 -0.2220  0.4099
  215HFI     C1 3059   2.558   0.534   2.819  0.7532 -0.4479 -0.1945
  215HFI     C2 3060   2.470   0.415   2.856  0.3607  0.0558 -0.3983
  215HFI     F1 3061   2.542   0.312   2.891 -0.1132 -0.0566  0.5707
  215HFI     F2 3062   2.393   0.369   2.757 -0.2499 -0.1435 -0.6504
  215HFI     F3 3063   2.385   0.440   2.955 -0.0895 -0.1370  0.5218
  215HFI     C3 3064   2.496   0.674   2.818 -0.1426 -0.0230 -0.4719
  215HFI     F4 3065   2.455   0.711   2.939 -0.2057  0.6039 -0.1733
  215HFI     F5 3066   2.383   0.676   2.742 -0.4839 -0.7531 -0.4113
  215HFI     F6 3067   2.583   0.769   2.781 -0.3079 -0.8377 -0.3968
  215HFI     H1 3068   2.721   0.503   2.697 -0.9877 -0.3395 -1.5732
  215HFI     H2 3069   2.635   0.546   2.896  0.1060  2.1240  0.0984
  216HFI     O1 3070   2.001   1.771   3.705  0.0837  0.6127  0.2947
  216HFI     C1 3071   2.117   1.679   3.724  0.0345 -0.2022 -0.2719
  216HFI     C2 3072   2.075   1.530   3.739  0.1893 -0.7321 -0.8402
  216HFI     F1 3073   2.182   1.447   3.752 -0.4940 -0.5026 -0.1449
  216HFI     F2 3074   2.002   1.495   3.630 -0.0899  0.0402  0.7350
  216HFI     F3 3075   2.007   1.515   3.848  0.1493 -0.2920  0.1550
  216HFI     C3 3076   2.210   1.725   3.837 -0.2050 -0.2854  0.7211
  216HFI     F4 3077   2.167   1.696   3.958  0.3542  0.1313 -0.0878
  216HFI     F5 3078   2.230   1.857   3.827 -0.4288  0.2018 -0.4829
  216HFI     F6 3079   2.328   1.665   3.819 -0.3941 -0.1918  0.2859
  216HFI     H1 3080   1.993   1.824   3.786 -1.6715  0.2240  0.4006
  216HFI     H2 3081   2.171   1.680   3.628  1.4402  1.7079  0.5148
  217HFI     O1 3082   1.512   3.044   3.116 -0.4009 -0.2443  0.3370
  217HFI     C1 3083   1.487   3.088   3.253  0.5964  0.2272 -0.0679
  217HFI     C2 3084   1.609   3.110   3.346 -0.3538  0.1616  0.6454
  217HFI     F1 3085   1.578   3.156   3.469  0.2520 -0.1733  0.2866
  217HFI     F2 3086   1.694   3.197   3.284 -0.4835  0.0419  0.0348
  217HFI     F3 3087   1.676   2.997   3.366 -0.5001 -0.0817 -0.2827
  217HFI     C3 3088   1.387   2.990   3.323 -0.1725  0.8540 -0.0589
  217HFI     F4 3089   1.360   3.021   3.453 -0.2256 -0.1245 -0.0566
  217HFI     F5 3090   1.421   2.864   3.322  0.2087  0.1166 -0.0226
  217HFI     F6 3091   1.271   3.002   3.259 -0.4261  0.2642 -0.2481
  217HFI     H1 3092   1.479   2.953   3.101  0.7974 -1.2175  3.2546
  217HFI     H2 3093   1.440   3.186   3.244  0.8106  0.2783 -0.6627
  218HFI     O1 3094   0.178   1.825   2.762  0.1289 -0.0071 -0.0105
  218HFI     C1 3095   0.126   1.864   2.894 -0.0137  0.1856  0.4378
  218HFI     C2 3096   0.171   1.759   3.003  0.1605  0.0330 -0.1365
  218HFI     F1 3097   0.151   1.632   2.967  0.3493 -0.4504  0.0681
  218HFI     F2 3098   0.123   1.782   3.132 -0.0534  0.4065 -0.2514
  218HFI     F3 3099   0.302   1.778   3.012  0.5473 -0.0686  0.1954
  218HFI     C3 3100  -0.030   1.868   2.878  0.3013  0.6899  0.4240
  218HFI     F4 3101  -0.080   1.944   2.979 -0.1721 -0.2945 -0.3618
  218HFI     F5 3102  -0.090   1.743   2.878 -0.0750 -0.0942 -0.3255
  218HFI     F6 3103  -0.078   1.923   2.763  0.3149 -0.2162 -0.1058
  218HFI     H1 3104   0.270   1.796   2.777  0.6811  1.7734  0.1914
  218HFI     H2 3105   0.156   1.964   2.925 -1.4957  0.2109  1.8897
  219HFI     O1 3106   0.651   1.156   1.089 -0.1541 -0.3572 -0.0159
  219HFI     C1 3107   0.714   1.223   0.973 -0.2169 -0.4625 -0.3754
  219HFI     C2 3108   0.847   1.149   0.935  0.0321 -0.6692 -0.0127
  219HFI     F1 3109   0.936   1.166   1.037 -0.3422 -0.2269 -0.1306
  219HFI     F2 3110   0.909   1.196   0.819 -0.1540 -0.0869 -0.0353
  219HFI     F3 3111   0.823   1.014   0.923  0.0907  0.1638  0.3566
  219HFI     C3 3112   0.727   1.374   0.991  0.0934 -0.1087 -0.1635
  219HFI     F4 3113   0.758   1.425   0.870 -0.2588  0.0882 -0.0615
  219HFI     F5 3114   0.827   1.408   1.074  0.0313 -0.5892 -0.1680
  219HFI     F6 3115   0.621   1.423   1.039  0.2430  0.1272 -0.2449
  219HFI     H1 3116   0.716   1.167   1.161  0.0742  0.1745 -0.3038
  219HFI     H2 3117   0.651   1.212   0.883  0.2144  0.4039 -0.7959
  220HFI     O1 3118   0.208   3.267   0.322 -0.1365 -0.5539 -0.2329
  220HFI     C1 3119   0.296   3.374   0.284  0.7742 -0.3011 -0.4322
  220HFI     C2 3120   0.448   3.358   0.327  0.2074  0.3105 -0.1546
  220HFI     F1 3121   0.482   3.227   0.323 -0.2909  0.2205  0.2192
  220HFI     F2 3122   0.484   3.400   0.450 -0.5155 -0.4124  0.0163
  220HFI     F3 3123   0.530   3.414   0.241 -0.2284 -0.1769  0.6618
  220HFI     C3 3124   0.249   3.515   0.331 -0.1504  0.4493 -0.4432
  220HFI     F4 3125   0.323   3.618   0.279  0.1185  0.0644  0.1931
  220HFI     F5 3126   0.266   3.535   0.462  0.1984  0.6282 -0.0167
  220HFI     F6 3127   0.123   3.530   0.294  0.4381  0.1550 -0.1066
  220HFI     H1 3128   0.155   3.290   0.401 -0.6777 -2.0718 -0.1393
  220HFI     H2 3129   0.313   3.396   0.178  3.3537  2.6629  0.5078
  221HFI     O1 3130   3.281   1.609   2.266 -0.0789 -0.6579  0.1026
  221HFI     C1 3131   3.337   1.534   2.376 -0.0284 -0.1074 -0.2623
  221HFI     C2 3132   3.267   1.394   2.387 -0.0993  0.0758  1.1001
  221HFI     F1 3133   3.146   1.402   2.440  0.6064  0.5950 -0.2686
  221HFI     F2 3134   3.341   1.307   2.459 -0.0486 -0.4626 -0.2023
  221HFI     F3 3135   3.254   1.335   2.266  0.5929 -0.3877 -0.3299
  221HFI     C3 3136   3.326   1.616   2.503  0.0380  0.0134 -0.4780
  221HFI     F4 3137   3.218   1.687   2.500 -0.0802 -0.0406  0.0069
  221HFI     F5 3138   3.427   1.698   2.514 -0.6013 -0.0913 -0.4879
  221HFI     F6 3139   3.326   1.542   2.615  0.4207 -0.0288  0.1041
  221HFI     H1 3140   3.202   1.654   2.299 -0.4089 -1.5897  0.5859
  221HFI     H2 3141   3.445   1.523   2.362 -0.1518 -1.9145  0.1133
  222HFI     O1 3142   1.050   2.960   3.096  0.7977  0.1075 -0.0989
  222HFI     C1 3143   1.053   2.905   2.961  0.5513  0.5368 -0.0354
  222HFI     C2 3144   1.155   2.969   2.873  0.0847  0.1988 -0.3851
  222HFI     F1 3145   1.273   2.955   2.930 -0.3709 -0.3439 -0.0532
  222HFI     F2 3146   1.133   3.100   2.857  0.0701 -0.3029  0.1121
  222HFI     F3 3147   1.175   2.907   2.754  0.2033  0.2519 -0.3425
  222HFI     C3 3148   0.911   2.917   2.895  0.8062  0.7041 -0.5323
  222HFI     F4 3149   0.821   2.851   2.974  0.2714 -0.0368  0.0005
  222HFI     F5 3150   0.910   2.863   2.777 -0.5220 -0.0974 -0.7291
  222HFI     F6 3151   0.874   3.043   2.890  0.3843  0.6856 -0.5561
  222HFI     H1 3152   1.134   2.954   3.144 -0.6720  0.6089  2.6325
  222HFI     H2 3153   1.073   2.797   2.963 -0.1596  0.4097  0.8864
  223HFI     O1 3154   0.357   2.109   3.449  0.2764 -0.4195 -0.6951
  223HFI     C1 3155   0.361   2.120   3.300  0.3104  0.6145 -0.2341
  223HFI     C2 3156   0.470   2.217   3.251 -0.0196  0.2120  0.4768
  223HFI     F1 3157   0.593   2.179   3.278 -0.5545 -0.0383  0.2588
  223HFI     F2 3158   0.449   2.333   3.308  0.4801 -0.2157 -0.0701
  223HFI     F3 3159   0.461   2.230   3.121 -0.0057 -0.6145  0.9290
  223HFI     C3 3160   0.219   2.162   3.253  0.5315  0.6286 -0.2284
  223HFI     F4 3161   0.134   2.066   3.297  0.1298  0.0132  0.2749
  223HFI     F5 3162   0.199   2.171   3.120  0.5577  0.4125 -0.0805
  223HFI     F6 3163   0.184   2.287   3.297  0.4155 -0.2808  0.5056
  223HFI     H1 3164   0.278   2.063   3.482  1.9435 -2.2819  0.8158
  223HFI     H2 3165   0.379   2.021   3.256  3.3011  1.5783 -1.2811
  224HFI     O1 3166   0.106   0.293   0.573 -0.0854  0.5986 -0.0364
  224HFI     C1 3167   0.171   0.429   0.591 -0.4839 -0.5397 -0.2355
  224HFI     C2 3168   0.230   0.486   0.450 -0.0551 -0.4556 -0.1183
  224HFI     F1 3169   0.341   0.426   0.411 -0.2919  0.4930 -0.5704
  224HFI     F2 3170   0.257   0.619   0.447 -0.5969  0.1804  0.6134
  224HFI     F3 3171   0.136   0.454   0.354  0.4206  0.0599 -0.1342
  224HFI     C3 3172   0.286   0.441   0.696  0.0750  0.5452 -0.8254
  224HFI     F4 3173   0.392   0.358   0.662  0.1280 -0.2111  0.2102
  224HFI     F5 3174   0.242   0.389   0.817  0.1685 -0.0216 -0.0698
  224HFI     F6 3175   0.340   0.564   0.710  0.1076  0.7649 -0.1472
  224HFI     H1 3176   0.168   0.227   0.607 -0.2199  0.4539 -0.0725
  224HFI     H2 3177   0.093   0.497   0.628  1.6125  0.6925  2.1245
  225HFI     O1 3178   1.563   1.176   3.205  0.5808  0.3550  0.0520
  225HFI     C1 3179   1.610   1.122   3.085  0.2009  0.1323  0.1079
  225HFI     C2 3180   1.577   1.224   2.968  0.6592  0.7757 -0.4121
  225HFI     F1 3181   1.637   1.338   2.998 -0.3410 -0.6215 -0.1378
  225HFI     F2 3182   1.445   1.253   2.952 -0.0125  0.0939 -0.0185
  225HFI     F3 3183   1.625   1.190   2.853 -0.5701 -0.2746  0.5943
  225HFI     C3 3184   1.560   0.977   3.067  0.4435  0.0895 -0.2628
  225HFI     F4 3185   1.432   0.967   3.115  0.4316 -0.0354  0.4651
  225HFI     F5 3186   1.636   0.895   3.152 -0.2276  0.5104  0.0524
  225HFI     F6 3187   1.567   0.927   2.945  0.4139 -0.2769  0.6606
  225HFI     H1 3188   1.490   1.235   3.181 -0.3208 -0.6925  0.1428
  225HFI     H2 3189   1.719   1.115   3.087  0.2797 -0.6757 -3.3888
  226HFI     O1 3190   3.112   0.112   2.677  0.1390  0.2051 -0.3898
  226HFI     C1 3191   3.063   0.250   2.672  0.7111  0.5529 -0.3611
  226HFI     C2 3192   3.138   0.332   2.775 -0.4477 -0.2563 -0.2785
  226HFI     F1 3193   3.268   0.319   2.745  0.1282 -0.0311 -0.3470
  226HFI     F2 3194   3.116   0.289   2.903 -0.0914 -0.0140 -0.2748
  226HFI     F3 3195   3.108   0.465   2.771  0.1093 -0.4971 -0.5571
  226HFI     C3 3196   2.910   0.265   2.702  0.0038 -1.0494  0.1939
  226HFI     F4 3197   2.874   0.384   2.657 -0.0578  0.0619 -0.0657
  226HFI     F5 3198   2.879   0.272   2.837 -0.1449  0.1949  0.4519
  226HFI     F6 3199   2.834   0.178   2.645 -0.4088  0.1203  0.4691
  226HFI     H1 3200   3.064   0.064   2.608 -2.1604 -1.3868  2.1715
  226HFI     H2 3201   3.073   0.300   2.575  1.0369  3.2009  1.0085
  227HFI     O1 3202   0.998   3.285   2.244 -0.4361  0.6676  0.0089
  227HFI     C1 3203   1.004   3.367   2.367  0.4557  0.0181 -0.2801
  227HFI     C2 3204   0.964   3.517   2.326 -0.1493 -0.2607 -0.1374
  227HFI     F1 3205   1.057   3.577   2.250 -0.3024 -0.3355 -0.0096
  227HFI     F2 3206   0.955   3.587   2.445 -0.2282 -0.0906  0.1132
  227HFI     F3 3207   0.846   3.526   2.263  0.3968 -0.9202 -0.2631
  227HFI     C3 3208   1.143   3.355   2.443  0.9557 -0.6178  0.4716
  227HFI     F4 3209   1.158   3.440   2.552  0.1879 -0.5987 -0.0261
  227HFI     F5 3210   1.243   3.386   2.358  0.3224  0.2684  0.4999
  227HFI     F6 3211   1.168   3.230   2.490  0.1168  1.2798 -0.1415
  227HFI     H1 3212   0.971   3.195   2.266 -0.0487  0.5973  0.2099
  227HFI     H2 3213   0.927   3.337   2.439  0.3348 -0.3189 -0.5509
  228HFI     O1 3214   3.276   3.215   2.761 -0.1934 -0.0137 -0.5041
  228HFI     C1 3215   3.177   3.111   2.800  0.2495  0.2947  0.1343
  228HFI     C2 3216   3.229   2.973   2.776 -0.0091  0.0751 -0.3180
  228HFI     F1 3217   3.356   2.958   2.813  0.6170 -0.4756  0.2942
  228HFI     F2 3218   3.226   2.933   2.647 -0.2890  0.0858  0.3868
  228HFI     F3 3219   3.158   2.879   2.850 -0.1511  0.2661  0.1014
  228HFI     C3 3220   3.030   3.143   2.760 -0.4186 -0.1865  0.4827
  228HFI     F4 3221   2.943   3.052   2.807 -0.6498  0.0275 -0.5252
  228HFI     F5 3222   3.012   3.145   2.625  0.0859  0.1588  0.5492
  228HFI     F6 3223   2.997   3.257   2.815 -0.6228  0.1850  0.7157
  228HFI     H1 3224   3.223   3.296   2.774 -1.2225 -0.8178  0.3926
  228HFI     H2 3225   3.179   3.115   2.909  1.0236 -2.9253  0.2861
   3.40320   3.43847   3.80000
