Anisole comparator n4
 3969
    1GR      C1    1   0.000   0.000   1.900  0.0000  0.0000  0.0000
    1GR      C2    2   0.142   0.000   1.900  0.0000  0.0000  0.0000
    1GR      C3    3   0.213   0.123   1.900  0.0000  0.0000  0.0000
    1GR      C4    4   0.354   0.123   1.900  0.0000  0.0000  0.0000
    1GR      C5    5   0.000   0.246   1.900  0.0000  0.0000  0.0000
    1GR      C6    6   0.142   0.246   1.900  0.0000  0.0000  0.0000
    1GR      C7    7   0.213   0.368   1.900  0.0000  0.0000  0.0000
    1GR      C8    8   0.354   0.368   1.900  0.0000  0.0000  0.0000
    1GR      C9    9   0.000   0.491   1.900  0.0000  0.0000  0.0000
    1GR     C10   10   0.142   0.491   1.900  0.0000  0.0000  0.0000
    1GR     C11   11   0.213   0.614   1.900  0.0000  0.0000  0.0000
    1GR     C12   12   0.354   0.614   1.900  0.0000  0.0000  0.0000
    1GR     C13   13   0.000   0.737   1.900  0.0000  0.0000  0.0000
    1GR     C14   14   0.142   0.737   1.900  0.0000  0.0000  0.0000
    1GR     C15   15   0.213   0.860   1.900  0.0000  0.0000  0.0000
    1GR     C16   16   0.354   0.860   1.900  0.0000  0.0000  0.0000
    1GR     C17   17   0.000   0.982   1.900  0.0000  0.0000  0.0000
    1GR     C18   18   0.142   0.982   1.900  0.0000  0.0000  0.0000
    1GR     C19   19   0.213   1.105   1.900  0.0000  0.0000  0.0000
    1GR     C20   20   0.354   1.105   1.900  0.0000  0.0000  0.0000
    1GR     C21   21   0.000   1.228   1.900  0.0000  0.0000  0.0000
    1GR     C22   22   0.142   1.228   1.900  0.0000  0.0000  0.0000
    1GR     C23   23   0.213   1.351   1.900  0.0000  0.0000  0.0000
    1GR     C24   24   0.354   1.351   1.900  0.0000  0.0000  0.0000
    1GR     C25   25   0.000   1.474   1.900  0.0000  0.0000  0.0000
    1GR     C26   26   0.142   1.474   1.900  0.0000  0.0000  0.0000
    1GR     C27   27   0.213   1.596   1.900  0.0000  0.0000  0.0000
    1GR     C28   28   0.354   1.596   1.900  0.0000  0.0000  0.0000
    1GR     C29   29   0.000   1.719   1.900  0.0000  0.0000  0.0000
    1GR     C30   30   0.142   1.719   1.900  0.0000  0.0000  0.0000
    1GR     C31   31   0.213   1.842   1.900  0.0000  0.0000  0.0000
    1GR     C32   32   0.354   1.842   1.900  0.0000  0.0000  0.0000
    1GR     C33   33   0.000   1.965   1.900  0.0000  0.0000  0.0000
    1GR     C34   34   0.142   1.965   1.900  0.0000  0.0000  0.0000
    1GR     C35   35   0.213   2.088   1.900  0.0000  0.0000  0.0000
    1GR     C36   36   0.354   2.088   1.900  0.0000  0.0000  0.0000
    1GR     C37   37   3.403   2.210   1.900  0.0000  0.0000  0.0000
    1GR     C38   38   0.142   2.210   1.900  0.0000  0.0000  0.0000
    1GR     C39   39   0.213   2.333   1.900  0.0000  0.0000  0.0000
    1GR     C40   40   0.354   2.333   1.900  0.0000  0.0000  0.0000
    1GR     C41   41  -0.000   2.456   1.900  0.0000  0.0000  0.0000
    1GR     C42   42   0.142   2.456   1.900  0.0000  0.0000  0.0000
    1GR     C43   43   0.213   2.579   1.900  0.0000  0.0000  0.0000
    1GR     C44   44   0.354   2.579   1.900  0.0000  0.0000  0.0000
    1GR     C45   45   0.000   2.702   1.900  0.0000  0.0000  0.0000
    1GR     C46   46   0.142   2.702   1.900  0.0000  0.0000  0.0000
    1GR     C47   47   0.213   2.824   1.900  0.0000  0.0000  0.0000
    1GR     C48   48   0.354   2.824   1.900  0.0000  0.0000  0.0000
    1GR     C49   49   0.000   2.947   1.900  0.0000  0.0000  0.0000
    1GR     C50   50   0.142   2.947   1.900  0.0000  0.0000  0.0000
    1GR     C51   51   0.213   3.070   1.900  0.0000  0.0000  0.0000
    1GR     C52   52   0.354   3.070   1.900  0.0000  0.0000  0.0000
    1GR     C53   53   0.000   3.193   1.900  0.0000  0.0000  0.0000
    1GR     C54   54   0.142   3.193   1.900  0.0000  0.0000  0.0000
    1GR     C55   55   0.213   3.316   1.900  0.0000  0.0000  0.0000
    1GR     C56   56   0.354   3.316   1.900  0.0000  0.0000  0.0000
    1GR     C57   57   0.425   0.000   1.900  0.0000  0.0000  0.0000
    1GR     C58   58   0.567   0.000   1.900  0.0000  0.0000  0.0000
    1GR     C59   59   0.638   0.123   1.900  0.0000  0.0000  0.0000
    1GR     C60   60   0.780   0.123   1.900  0.0000  0.0000  0.0000
    1GR     C61   61   0.425   0.246   1.900  0.0000  0.0000  0.0000
    1GR     C62   62   0.567   0.246   1.900  0.0000  0.0000  0.0000
    1GR     C63   63   0.638   0.368   1.900  0.0000  0.0000  0.0000
    1GR     C64   64   0.780   0.368   1.900  0.0000  0.0000  0.0000
    1GR     C65   65   0.425   0.491   1.900  0.0000  0.0000  0.0000
    1GR     C66   66   0.567   0.491   1.900  0.0000  0.0000  0.0000
    1GR     C67   67   0.638   0.614   1.900  0.0000  0.0000  0.0000
    1GR     C68   68   0.780   0.614   1.900  0.0000  0.0000  0.0000
    1GR     C69   69   0.425   0.737   1.900  0.0000  0.0000  0.0000
    1GR     C70   70   0.567   0.737   1.900  0.0000  0.0000  0.0000
    1GR     C71   71   0.638   0.860   1.900  0.0000  0.0000  0.0000
    1GR     C72   72   0.780   0.860   1.900  0.0000  0.0000  0.0000
    1GR     C73   73   0.425   0.982   1.900  0.0000  0.0000  0.0000
    1GR     C74   74   0.567   0.982   1.900  0.0000  0.0000  0.0000
    1GR     C75   75   0.638   1.105   1.900  0.0000  0.0000  0.0000
    1GR     C76   76   0.780   1.105   1.900  0.0000  0.0000  0.0000
    1GR     C77   77   0.425   1.228   1.900  0.0000  0.0000  0.0000
    1GR     C78   78   0.567   1.228   1.900  0.0000  0.0000  0.0000
    1GR     C79   79   0.638   1.351   1.900  0.0000  0.0000  0.0000
    1GR     C80   80   0.780   1.351   1.900  0.0000  0.0000  0.0000
    1GR     C81   81   0.425   1.474   1.900  0.0000  0.0000  0.0000
    1GR     C82   82   0.567   1.474   1.900  0.0000  0.0000  0.0000
    1GR     C83   83   0.638   1.596   1.900  0.0000  0.0000  0.0000
    1GR     C84   84   0.780   1.596   1.900  0.0000  0.0000  0.0000
    1GR     C85   85   0.425   1.719   1.900  0.0000  0.0000  0.0000
    1GR     C86   86   0.567   1.719   1.900  0.0000  0.0000  0.0000
    1GR     C87   87   0.638   1.842   1.900  0.0000  0.0000  0.0000
    1GR     C88   88   0.780   1.842   1.900  0.0000  0.0000  0.0000
    1GR     C89   89   0.425   1.965   1.900  0.0000  0.0000  0.0000
    1GR     C90   90   0.567   1.965   1.900  0.0000  0.0000  0.0000
    1GR     C91   91   0.638   2.088   1.900  0.0000  0.0000  0.0000
    1GR     C92   92   0.780   2.088   1.900  0.0000  0.0000  0.0000
    1GR     C93   93   0.425   2.210   1.900  0.0000  0.0000  0.0000
    1GR     C94   94   0.567   2.210   1.900  0.0000  0.0000  0.0000
    1GR     C95   95   0.638   2.333   1.900  0.0000  0.0000  0.0000
    1GR     C96   96   0.780   2.333   1.900  0.0000  0.0000  0.0000
    1GR     C97   97   0.425   2.456   1.900  0.0000  0.0000  0.0000
    1GR     C98   98   0.567   2.456   1.900  0.0000  0.0000  0.0000
    1GR     C99   99   0.638   2.579   1.900  0.0000  0.0000  0.0000
    1GR    C100  100   0.780   2.579   1.900  0.0000  0.0000  0.0000
    1GR    C101  101   0.425   2.702   1.900  0.0000  0.0000  0.0000
    1GR    C102  102   0.567   2.702   1.900  0.0000  0.0000  0.0000
    1GR    C103  103   0.638   2.824   1.900  0.0000  0.0000  0.0000
    1GR    C104  104   0.780   2.824   1.900  0.0000  0.0000  0.0000
    1GR    C105  105   0.425   2.947   1.900  0.0000  0.0000  0.0000
    1GR    C106  106   0.567   2.947   1.900  0.0000  0.0000  0.0000
    1GR    C107  107   0.638   3.070   1.900  0.0000  0.0000  0.0000
    1GR    C108  108   0.780   3.070   1.900  0.0000  0.0000  0.0000
    1GR    C109  109   0.425   3.193   1.900  0.0000  0.0000  0.0000
    1GR    C110  110   0.567   3.193   1.900  0.0000  0.0000  0.0000
    1GR    C111  111   0.638   3.316   1.900  0.0000  0.0000  0.0000
    1GR    C112  112   0.780   3.316   1.900  0.0000  0.0000  0.0000
    1GR    C113  113   0.851   0.000   1.900  0.0000  0.0000  0.0000
    1GR    C114  114   0.993   0.000   1.900  0.0000  0.0000  0.0000
    1GR    C115  115   1.064   0.123   1.900  0.0000  0.0000  0.0000
    1GR    C116  116   1.205   0.123   1.900  0.0000  0.0000  0.0000
    1GR    C117  117   0.851   0.246   1.900  0.0000  0.0000  0.0000
    1GR    C118  118   0.993   0.246   1.900  0.0000  0.0000  0.0000
    1GR    C119  119   1.064   0.368   1.900  0.0000  0.0000  0.0000
    1GR    C120  120   1.205   0.368   1.900  0.0000  0.0000  0.0000
    1GR    C121  121   0.851   0.491   1.900  0.0000  0.0000  0.0000
    1GR    C122  122   0.993   0.491   1.900  0.0000  0.0000  0.0000
    1GR    C123  123   1.064   0.614   1.900  0.0000  0.0000  0.0000
    1GR    C124  124   1.205   0.614   1.900  0.0000  0.0000  0.0000
    1GR    C125  125   0.851   0.737   1.900  0.0000  0.0000  0.0000
    1GR    C126  126   0.993   0.737   1.900  0.0000  0.0000  0.0000
    1GR    C127  127   1.064   0.860   1.900  0.0000  0.0000  0.0000
    1GR    C128  128   1.205   0.860   1.900  0.0000  0.0000  0.0000
    1GR    C129  129   0.851   0.982   1.900  0.0000  0.0000  0.0000
    1GR    C130  130   0.993   0.982   1.900  0.0000  0.0000  0.0000
    1GR    C131  131   1.064   1.105   1.900  0.0000  0.0000  0.0000
    1GR    C132  132   1.205   1.105   1.900  0.0000  0.0000  0.0000
    1GR    C133  133   0.851   1.228   1.900  0.0000  0.0000  0.0000
    1GR    C134  134   0.993   1.228   1.900  0.0000  0.0000  0.0000
    1GR    C135  135   1.064   1.351   1.900  0.0000  0.0000  0.0000
    1GR    C136  136   1.205   1.351   1.900  0.0000  0.0000  0.0000
    1GR    C137  137   0.851   1.474   1.900  0.0000  0.0000  0.0000
    1GR    C138  138   0.993   1.474   1.900  0.0000  0.0000  0.0000
    1GR    C139  139   1.064   1.596   1.900  0.0000  0.0000  0.0000
    1GR    C140  140   1.205   1.596   1.900  0.0000  0.0000  0.0000
    1GR    C141  141   0.851   1.719   1.900  0.0000  0.0000  0.0000
    1GR    C142  142   0.993   1.719   1.900  0.0000  0.0000  0.0000
    1GR    C143  143   1.064   1.842   1.900  0.0000  0.0000  0.0000
    1GR    C144  144   1.205   1.842   1.900  0.0000  0.0000  0.0000
    1GR    C145  145   0.851   1.965   1.900  0.0000  0.0000  0.0000
    1GR    C146  146   0.993   1.965   1.900  0.0000  0.0000  0.0000
    1GR    C147  147   1.064   2.088   1.900  0.0000  0.0000  0.0000
    1GR    C148  148   1.205   2.088   1.900  0.0000  0.0000  0.0000
    1GR    C149  149   0.851   2.210   1.900  0.0000  0.0000  0.0000
    1GR    C150  150   0.993   2.210   1.900  0.0000  0.0000  0.0000
    1GR    C151  151   1.064   2.333   1.900  0.0000  0.0000  0.0000
    1GR    C152  152   1.205   2.333   1.900  0.0000  0.0000  0.0000
    1GR    C153  153   0.851   2.456   1.900  0.0000  0.0000  0.0000
    1GR    C154  154   0.993   2.456   1.900  0.0000  0.0000  0.0000
    1GR    C155  155   1.064   2.579   1.900  0.0000  0.0000  0.0000
    1GR    C156  156   1.205   2.579   1.900  0.0000  0.0000  0.0000
    1GR    C157  157   0.851   2.702   1.900  0.0000  0.0000  0.0000
    1GR    C158  158   0.993   2.702   1.900  0.0000  0.0000  0.0000
    1GR    C159  159   1.064   2.824   1.900  0.0000  0.0000  0.0000
    1GR    C160  160   1.205   2.824   1.900  0.0000  0.0000  0.0000
    1GR    C161  161   0.851   2.947   1.900  0.0000  0.0000  0.0000
    1GR    C162  162   0.993   2.947   1.900  0.0000  0.0000  0.0000
    1GR    C163  163   1.064   3.070   1.900  0.0000  0.0000  0.0000
    1GR    C164  164   1.205   3.070   1.900  0.0000  0.0000  0.0000
    1GR    C165  165   0.851   3.193   1.900  0.0000  0.0000  0.0000
    1GR    C166  166   0.993   3.193   1.900  0.0000  0.0000  0.0000
    1GR    C167  167   1.064   3.316   1.900  0.0000  0.0000  0.0000
    1GR    C168  168   1.205   3.316   1.900  0.0000  0.0000  0.0000
    1GR    C169  169   1.276   0.000   1.900  0.0000  0.0000  0.0000
    1GR    C170  170   1.418   0.000   1.900  0.0000  0.0000  0.0000
    1GR    C171  171   1.489   0.123   1.900  0.0000  0.0000  0.0000
    1GR    C172  172   1.631   0.123   1.900  0.0000  0.0000  0.0000
    1GR    C173  173   1.276   0.246   1.900  0.0000  0.0000  0.0000
    1GR    C174  174   1.418   0.246   1.900  0.0000  0.0000  0.0000
    1GR    C175  175   1.489   0.368   1.900  0.0000  0.0000  0.0000
    1GR    C176  176   1.631   0.368   1.900  0.0000  0.0000  0.0000
    1GR    C177  177   1.276   0.491   1.900  0.0000  0.0000  0.0000
    1GR    C178  178   1.418   0.491   1.900  0.0000  0.0000  0.0000
    1GR    C179  179   1.489   0.614   1.900  0.0000  0.0000  0.0000
    1GR    C180  180   1.631   0.614   1.900  0.0000  0.0000  0.0000
    1GR    C181  181   1.276   0.737   1.900  0.0000  0.0000  0.0000
    1GR    C182  182   1.418   0.737   1.900  0.0000  0.0000  0.0000
    1GR    C183  183   1.489   0.860   1.900  0.0000  0.0000  0.0000
    1GR    C184  184   1.631   0.860   1.900  0.0000  0.0000  0.0000
    1GR    C185  185   1.276   0.982   1.900  0.0000  0.0000  0.0000
    1GR    C186  186   1.418   0.982   1.900  0.0000  0.0000  0.0000
    1GR    C187  187   1.489   1.105   1.900  0.0000  0.0000  0.0000
    1GR    C188  188   1.631   1.105   1.900  0.0000  0.0000  0.0000
    1GR    C189  189   1.276   1.228   1.900  0.0000  0.0000  0.0000
    1GR    C190  190   1.418   1.228   1.900  0.0000  0.0000  0.0000
    1GR    C191  191   1.489   1.351   1.900  0.0000  0.0000  0.0000
    1GR    C192  192   1.631   1.351   1.900  0.0000  0.0000  0.0000
    1GR    C193  193   1.276   1.474   1.900  0.0000  0.0000  0.0000
    1GR    C194  194   1.418   1.474   1.900  0.0000  0.0000  0.0000
    1GR    C195  195   1.489   1.596   1.900  0.0000  0.0000  0.0000
    1GR    C196  196   1.631   1.596   1.900  0.0000  0.0000  0.0000
    1GR    C197  197   1.276   1.719   1.900  0.0000  0.0000  0.0000
    1GR    C198  198   1.418   1.719   1.900  0.0000  0.0000  0.0000
    1GR    C199  199   1.489   1.842   1.900  0.0000  0.0000  0.0000
    1GR    C200  200   1.631   1.842   1.900  0.0000  0.0000  0.0000
    1GR    C201  201   1.276   1.965   1.900  0.0000  0.0000  0.0000
    1GR    C202  202   1.418   1.965   1.900  0.0000  0.0000  0.0000
    1GR    C203  203   1.489   2.088   1.900  0.0000  0.0000  0.0000
    1GR    C204  204   1.631   2.088   1.900  0.0000  0.0000  0.0000
    1GR    C205  205   1.276   2.210   1.900  0.0000  0.0000  0.0000
    1GR    C206  206   1.418   2.210   1.900  0.0000  0.0000  0.0000
    1GR    C207  207   1.489   2.333   1.900  0.0000  0.0000  0.0000
    1GR    C208  208   1.631   2.333   1.900  0.0000  0.0000  0.0000
    1GR    C209  209   1.276   2.456   1.900  0.0000  0.0000  0.0000
    1GR    C210  210   1.418   2.456   1.900  0.0000  0.0000  0.0000
    1GR    C211  211   1.489   2.579   1.900  0.0000  0.0000  0.0000
    1GR    C212  212   1.631   2.579   1.900  0.0000  0.0000  0.0000
    1GR    C213  213   1.276   2.702   1.900  0.0000  0.0000  0.0000
    1GR    C214  214   1.418   2.702   1.900  0.0000  0.0000  0.0000
    1GR    C215  215   1.489   2.824   1.900  0.0000  0.0000  0.0000
    1GR    C216  216   1.631   2.824   1.900  0.0000  0.0000  0.0000
    1GR    C217  217   1.276   2.947   1.900  0.0000  0.0000  0.0000
    1GR    C218  218   1.418   2.947   1.900  0.0000  0.0000  0.0000
    1GR    C219  219   1.489   3.070   1.900  0.0000  0.0000  0.0000
    1GR    C220  220   1.631   3.070   1.900  0.0000  0.0000  0.0000
    1GR    C221  221   1.276   3.193   1.900  0.0000  0.0000  0.0000
    1GR    C222  222   1.418   3.193   1.900  0.0000  0.0000  0.0000
    1GR    C223  223   1.489   3.316   1.900  0.0000  0.0000  0.0000
    1GR    C224  224   1.631   3.316   1.900  0.0000  0.0000  0.0000
    1GR    C225  225   1.702   0.000   1.900  0.0000  0.0000  0.0000
    1GR    C226  226   1.843   0.000   1.900  0.0000  0.0000  0.0000
    1GR    C227  227   1.914   0.123   1.900  0.0000  0.0000  0.0000
    1GR    C228  228   2.056   0.123   1.900  0.0000  0.0000  0.0000
    1GR    C229  229   1.702   0.246   1.900  0.0000  0.0000  0.0000
    1GR    C230  230   1.843   0.246   1.900  0.0000  0.0000  0.0000
    1GR    C231  231   1.914   0.368   1.900  0.0000  0.0000  0.0000
    1GR    C232  232   2.056   0.368   1.900  0.0000  0.0000  0.0000
    1GR    C233  233   1.702   0.491   1.900  0.0000  0.0000  0.0000
    1GR    C234  234   1.843   0.491   1.900  0.0000  0.0000  0.0000
    1GR    C235  235   1.914   0.614   1.900  0.0000  0.0000  0.0000
    1GR    C236  236   2.056   0.614   1.900  0.0000  0.0000  0.0000
    1GR    C237  237   1.702   0.737   1.900  0.0000  0.0000  0.0000
    1GR    C238  238   1.843   0.737   1.900  0.0000  0.0000  0.0000
    1GR    C239  239   1.914   0.860   1.900  0.0000  0.0000  0.0000
    1GR    C240  240   2.056   0.860   1.900  0.0000  0.0000  0.0000
    1GR    C241  241   1.702   0.982   1.900  0.0000  0.0000  0.0000
    1GR    C242  242   1.843   0.982   1.900  0.0000  0.0000  0.0000
    1GR    C243  243   1.914   1.105   1.900  0.0000  0.0000  0.0000
    1GR    C244  244   2.056   1.105   1.900  0.0000  0.0000  0.0000
    1GR    C245  245   1.702   1.228   1.900  0.0000  0.0000  0.0000
    1GR    C246  246   1.843   1.228   1.900  0.0000  0.0000  0.0000
    1GR    C247  247   1.914   1.351   1.900  0.0000  0.0000  0.0000
    1GR    C248  248   2.056   1.351   1.900  0.0000  0.0000  0.0000
    1GR    C249  249   1.702   1.474   1.900  0.0000  0.0000  0.0000
    1GR    C250  250   1.843   1.474   1.900  0.0000  0.0000  0.0000
    1GR    C251  251   1.914   1.596   1.900  0.0000  0.0000  0.0000
    1GR    C252  252   2.056   1.596   1.900  0.0000  0.0000  0.0000
    1GR    C253  253   1.702   1.719   1.900  0.0000  0.0000  0.0000
    1GR    C254  254   1.843   1.719   1.900  0.0000  0.0000  0.0000
    1GR    C255  255   1.914   1.842   1.900  0.0000  0.0000  0.0000
    1GR    C256  256   2.056   1.842   1.900  0.0000  0.0000  0.0000
    1GR    C257  257   1.702   1.965   1.900  0.0000  0.0000  0.0000
    1GR    C258  258   1.843   1.965   1.900  0.0000  0.0000  0.0000
    1GR    C259  259   1.914   2.088   1.900  0.0000  0.0000  0.0000
    1GR    C260  260   2.056   2.088   1.900  0.0000  0.0000  0.0000
    1GR    C261  261   1.702   2.210   1.900  0.0000  0.0000  0.0000
    1GR    C262  262   1.843   2.210   1.900  0.0000  0.0000  0.0000
    1GR    C263  263   1.914   2.333   1.900  0.0000  0.0000  0.0000
    1GR    C264  264   2.056   2.333   1.900  0.0000  0.0000  0.0000
    1GR    C265  265   1.702   2.456   1.900  0.0000  0.0000  0.0000
    1GR    C266  266   1.843   2.456   1.900  0.0000  0.0000  0.0000
    1GR    C267  267   1.914   2.579   1.900  0.0000  0.0000  0.0000
    1GR    C268  268   2.056   2.579   1.900  0.0000  0.0000  0.0000
    1GR    C269  269   1.702   2.702   1.900  0.0000  0.0000  0.0000
    1GR    C270  270   1.843   2.702   1.900  0.0000  0.0000  0.0000
    1GR    C271  271   1.914   2.824   1.900  0.0000  0.0000  0.0000
    1GR    C272  272   2.056   2.824   1.900  0.0000  0.0000  0.0000
    1GR    C273  273   1.702   2.947   1.900  0.0000  0.0000  0.0000
    1GR    C274  274   1.843   2.947   1.900  0.0000  0.0000  0.0000
    1GR    C275  275   1.914   3.070   1.900  0.0000  0.0000  0.0000
    1GR    C276  276   2.056   3.070   1.900  0.0000  0.0000  0.0000
    1GR    C277  277   1.702   3.193   1.900  0.0000  0.0000  0.0000
    1GR    C278  278   1.843   3.193   1.900  0.0000  0.0000  0.0000
    1GR    C279  279   1.914   3.316   1.900  0.0000  0.0000  0.0000
    1GR    C280  280   2.056   3.316   1.900  0.0000  0.0000  0.0000
    1GR    C281  281   2.127   0.000   1.900  0.0000  0.0000  0.0000
    1GR    C282  282   2.269   0.000   1.900  0.0000  0.0000  0.0000
    1GR    C283  283   2.340   0.123   1.900  0.0000  0.0000  0.0000
    1GR    C284  284   2.481   0.123   1.900  0.0000  0.0000  0.0000
    1GR    C285  285   2.127   0.246   1.900  0.0000  0.0000  0.0000
    1GR    C286  286   2.269   0.246   1.900  0.0000  0.0000  0.0000
    1GR    C287  287   2.340   0.368   1.900  0.0000  0.0000  0.0000
    1GR    C288  288   2.481   0.368   1.900  0.0000  0.0000  0.0000
    1GR    C289  289   2.127   0.491   1.900  0.0000  0.0000  0.0000
    1GR    C290  290   2.269   0.491   1.900  0.0000  0.0000  0.0000
    1GR    C291  291   2.340   0.614   1.900  0.0000  0.0000  0.0000
    1GR    C292  292   2.481   0.614   1.900  0.0000  0.0000  0.0000
    1GR    C293  293   2.127   0.737   1.900  0.0000  0.0000  0.0000
    1GR    C294  294   2.269   0.737   1.900  0.0000  0.0000  0.0000
    1GR    C295  295   2.340   0.860   1.900  0.0000  0.0000  0.0000
    1GR    C296  296   2.481   0.860   1.900  0.0000  0.0000  0.0000
    1GR    C297  297   2.127   0.982   1.900  0.0000  0.0000  0.0000
    1GR    C298  298   2.269   0.982   1.900  0.0000  0.0000  0.0000
    1GR    C299  299   2.340   1.105   1.900  0.0000  0.0000  0.0000
    1GR    C300  300   2.481   1.105   1.900  0.0000  0.0000  0.0000
    1GR    C301  301   2.127   1.228   1.900  0.0000  0.0000  0.0000
    1GR    C302  302   2.269   1.228   1.900  0.0000  0.0000  0.0000
    1GR    C303  303   2.340   1.351   1.900  0.0000  0.0000  0.0000
    1GR    C304  304   2.481   1.351   1.900  0.0000  0.0000  0.0000
    1GR    C305  305   2.127   1.474   1.900  0.0000  0.0000  0.0000
    1GR    C306  306   2.269   1.474   1.900  0.0000  0.0000  0.0000
    1GR    C307  307   2.340   1.596   1.900  0.0000  0.0000  0.0000
    1GR    C308  308   2.481   1.596   1.900  0.0000  0.0000  0.0000
    1GR    C309  309   2.127   1.719   1.900  0.0000  0.0000  0.0000
    1GR    C310  310   2.269   1.719   1.900  0.0000  0.0000  0.0000
    1GR    C311  311   2.340   1.842   1.900  0.0000  0.0000  0.0000
    1GR    C312  312   2.481   1.842   1.900  0.0000  0.0000  0.0000
    1GR    C313  313   2.127   1.965   1.900  0.0000  0.0000  0.0000
    1GR    C314  314   2.269   1.965   1.900  0.0000  0.0000  0.0000
    1GR    C315  315   2.340   2.088   1.900  0.0000  0.0000  0.0000
    1GR    C316  316   2.481   2.088   1.900  0.0000  0.0000  0.0000
    1GR    C317  317   2.127   2.210   1.900  0.0000  0.0000  0.0000
    1GR    C318  318   2.269   2.210   1.900  0.0000  0.0000  0.0000
    1GR    C319  319   2.340   2.333   1.900  0.0000  0.0000  0.0000
    1GR    C320  320   2.481   2.333   1.900  0.0000  0.0000  0.0000
    1GR    C321  321   2.127   2.456   1.900  0.0000  0.0000  0.0000
    1GR    C322  322   2.269   2.456   1.900  0.0000  0.0000  0.0000
    1GR    C323  323   2.340   2.579   1.900  0.0000  0.0000  0.0000
    1GR    C324  324   2.481   2.579   1.900  0.0000  0.0000  0.0000
    1GR    C325  325   2.127   2.702   1.900  0.0000  0.0000  0.0000
    1GR    C326  326   2.269   2.702   1.900  0.0000  0.0000  0.0000
    1GR    C327  327   2.340   2.824   1.900  0.0000  0.0000  0.0000
    1GR    C328  328   2.481   2.824   1.900  0.0000  0.0000  0.0000
    1GR    C329  329   2.127   2.947   1.900  0.0000  0.0000  0.0000
    1GR    C330  330   2.269   2.947   1.900  0.0000  0.0000  0.0000
    1GR    C331  331   2.340   3.070   1.900  0.0000  0.0000  0.0000
    1GR    C332  332   2.481   3.070   1.900  0.0000  0.0000  0.0000
    1GR    C333  333   2.127   3.193   1.900  0.0000  0.0000  0.0000
    1GR    C334  334   2.269   3.193   1.900  0.0000  0.0000  0.0000
    1GR    C335  335   2.340   3.316   1.900  0.0000  0.0000  0.0000
    1GR    C336  336   2.481   3.316   1.900  0.0000  0.0000  0.0000
    1GR    C337  337   2.552   0.000   1.900  0.0000  0.0000  0.0000
    1GR    C338  338   2.694   0.000   1.900  0.0000  0.0000  0.0000
    1GR    C339  339   2.765   0.123   1.900  0.0000  0.0000  0.0000
    1GR    C340  340   2.907   0.123   1.900  0.0000  0.0000  0.0000
    1GR    C341  341   2.552   0.246   1.900  0.0000  0.0000  0.0000
    1GR    C342  342   2.694   0.246   1.900  0.0000  0.0000  0.0000
    1GR    C343  343   2.765   0.368   1.900  0.0000  0.0000  0.0000
    1GR    C344  344   2.907   0.368   1.900  0.0000  0.0000  0.0000
    1GR    C345  345   2.552   0.491   1.900  0.0000  0.0000  0.0000
    1GR    C346  346   2.694   0.491   1.900  0.0000  0.0000  0.0000
    1GR    C347  347   2.765   0.614   1.900  0.0000  0.0000  0.0000
    1GR    C348  348   2.907   0.614   1.900  0.0000  0.0000  0.0000
    1GR    C349  349   2.552   0.737   1.900  0.0000  0.0000  0.0000
    1GR    C350  350   2.694   0.737   1.900  0.0000  0.0000  0.0000
    1GR    C351  351   2.765   0.860   1.900  0.0000  0.0000  0.0000
    1GR    C352  352   2.907   0.860   1.900  0.0000  0.0000  0.0000
    1GR    C353  353   2.552   0.982   1.900  0.0000  0.0000  0.0000
    1GR    C354  354   2.694   0.982   1.900  0.0000  0.0000  0.0000
    1GR    C355  355   2.765   1.105   1.900  0.0000  0.0000  0.0000
    1GR    C356  356   2.907   1.105   1.900  0.0000  0.0000  0.0000
    1GR    C357  357   2.552   1.228   1.900  0.0000  0.0000  0.0000
    1GR    C358  358   2.694   1.228   1.900  0.0000  0.0000  0.0000
    1GR    C359  359   2.765   1.351   1.900  0.0000  0.0000  0.0000
    1GR    C360  360   2.907   1.351   1.900  0.0000  0.0000  0.0000
    1GR    C361  361   2.552   1.474   1.900  0.0000  0.0000  0.0000
    1GR    C362  362   2.694   1.474   1.900  0.0000  0.0000  0.0000
    1GR    C363  363   2.765   1.596   1.900  0.0000  0.0000  0.0000
    1GR    C364  364   2.907   1.596   1.900  0.0000  0.0000  0.0000
    1GR    C365  365   2.552   1.719   1.900  0.0000  0.0000  0.0000
    1GR    C366  366   2.694   1.719   1.900  0.0000  0.0000  0.0000
    1GR    C367  367   2.765   1.842   1.900  0.0000  0.0000  0.0000
    1GR    C368  368   2.907   1.842   1.900  0.0000  0.0000  0.0000
    1GR    C369  369   2.552   1.965   1.900  0.0000  0.0000  0.0000
    1GR    C370  370   2.694   1.965   1.900  0.0000  0.0000  0.0000
    1GR    C371  371   2.765   2.088   1.900  0.0000  0.0000  0.0000
    1GR    C372  372   2.907   2.088   1.900  0.0000  0.0000  0.0000
    1GR    C373  373   2.552   2.210   1.900  0.0000  0.0000  0.0000
    1GR    C374  374   2.694   2.210   1.900  0.0000  0.0000  0.0000
    1GR    C375  375   2.765   2.333   1.900  0.0000  0.0000  0.0000
    1GR    C376  376   2.907   2.333   1.900  0.0000  0.0000  0.0000
    1GR    C377  377   2.552   2.456   1.900  0.0000  0.0000  0.0000
    1GR    C378  378   2.694   2.456   1.900  0.0000  0.0000  0.0000
    1GR    C379  379   2.765   2.579   1.900  0.0000  0.0000  0.0000
    1GR    C380  380   2.907   2.579   1.900  0.0000  0.0000  0.0000
    1GR    C381  381   2.552   2.702   1.900  0.0000  0.0000  0.0000
    1GR    C382  382   2.694   2.702   1.900  0.0000  0.0000  0.0000
    1GR    C383  383   2.765   2.824   1.900  0.0000  0.0000  0.0000
    1GR    C384  384   2.907   2.824   1.900  0.0000  0.0000  0.0000
    1GR    C385  385   2.552   2.947   1.900  0.0000  0.0000  0.0000
    1GR    C386  386   2.694   2.947   1.900  0.0000  0.0000  0.0000
    1GR    C387  387   2.765   3.070   1.900  0.0000  0.0000  0.0000
    1GR    C388  388   2.907   3.070   1.900  0.0000  0.0000  0.0000
    1GR    C389  389   2.552   3.193   1.900  0.0000  0.0000  0.0000
    1GR    C390  390   2.694   3.193   1.900  0.0000  0.0000  0.0000
    1GR    C391  391   2.765   3.316   1.900  0.0000  0.0000  0.0000
    1GR    C392  392   2.907   3.316   1.900  0.0000  0.0000  0.0000
    1GR    C393  393   2.978   0.000   1.900  0.0000  0.0000  0.0000
    1GR    C394  394   3.120   0.000   1.900  0.0000  0.0000  0.0000
    1GR    C395  395   3.191   0.123   1.900  0.0000  0.0000  0.0000
    1GR    C396  396   3.332   0.123   1.900  0.0000  0.0000  0.0000
    1GR    C397  397   2.978   0.246   1.900  0.0000  0.0000  0.0000
    1GR    C398  398   3.120   0.246   1.900  0.0000  0.0000  0.0000
    1GR    C399  399   3.191   0.368   1.900  0.0000  0.0000  0.0000
    1GR    C400  400   3.332   0.368   1.900  0.0000  0.0000  0.0000
    1GR    C401  401   2.978   0.491   1.900  0.0000  0.0000  0.0000
    1GR    C402  402   3.120   0.491   1.900  0.0000  0.0000  0.0000
    1GR    C403  403   3.191   0.614   1.900  0.0000  0.0000  0.0000
    1GR    C404  404   3.332   0.614   1.900  0.0000  0.0000  0.0000
    1GR    C405  405   2.978   0.737   1.900  0.0000  0.0000  0.0000
    1GR    C406  406   3.120   0.737   1.900  0.0000  0.0000  0.0000
    1GR    C407  407   3.191   0.860   1.900  0.0000  0.0000  0.0000
    1GR    C408  408   3.332   0.860   1.900  0.0000  0.0000  0.0000
    1GR    C409  409   2.978   0.982   1.900  0.0000  0.0000  0.0000
    1GR    C410  410   3.120   0.982   1.900  0.0000  0.0000  0.0000
    1GR    C411  411   3.191   1.105   1.900  0.0000  0.0000  0.0000
    1GR    C412  412   3.332   1.105   1.900  0.0000  0.0000  0.0000
    1GR    C413  413   2.978   1.228   1.900  0.0000  0.0000  0.0000
    1GR    C414  414   3.120   1.228   1.900  0.0000  0.0000  0.0000
    1GR    C415  415   3.191   1.351   1.900  0.0000  0.0000  0.0000
    1GR    C416  416   3.332   1.351   1.900  0.0000  0.0000  0.0000
    1GR    C417  417   2.978   1.474   1.900  0.0000  0.0000  0.0000
    1GR    C418  418   3.120   1.474   1.900  0.0000  0.0000  0.0000
    1GR    C419  419   3.191   1.596   1.900  0.0000  0.0000  0.0000
    1GR    C420  420   3.332   1.596   1.900  0.0000  0.0000  0.0000
    1GR    C421  421   2.978   1.719   1.900  0.0000  0.0000  0.0000
    1GR    C422  422   3.120   1.719   1.900  0.0000  0.0000  0.0000
    1GR    C423  423   3.191   1.842   1.900  0.0000  0.0000  0.0000
    1GR    C424  424   3.332   1.842   1.900  0.0000  0.0000  0.0000
    1GR    C425  425   2.978   1.965   1.900  0.0000  0.0000  0.0000
    1GR    C426  426   3.120   1.965   1.900  0.0000  0.0000  0.0000
    1GR    C427  427   3.191   2.088   1.900  0.0000  0.0000  0.0000
    1GR    C428  428   3.332   2.088   1.900  0.0000  0.0000  0.0000
    1GR    C429  429   2.978   2.210   1.900  0.0000  0.0000  0.0000
    1GR    C430  430   3.120   2.210   1.900  0.0000  0.0000  0.0000
    1GR    C431  431   3.191   2.333   1.900  0.0000  0.0000  0.0000
    1GR    C432  432   3.332   2.333   1.900  0.0000  0.0000  0.0000
    1GR    C433  433   2.978   2.456   1.900  0.0000  0.0000  0.0000
    1GR    C434  434   3.120   2.456   1.900  0.0000  0.0000  0.0000
    1GR    C435  435   3.191   2.579   1.900  0.0000  0.0000  0.0000
    1GR    C436  436   3.332   2.579   1.900  0.0000  0.0000  0.0000
    1GR    C437  437   2.978   2.702   1.900  0.0000  0.0000  0.0000
    1GR    C438  438   3.120   2.702   1.900  0.0000  0.0000  0.0000
    1GR    C439  439   3.191   2.824   1.900  0.0000  0.0000  0.0000
    1GR    C440  440   3.332   2.824   1.900  0.0000  0.0000  0.0000
    1GR    C441  441   2.978   2.947   1.900  0.0000  0.0000  0.0000
    1GR    C442  442   3.120   2.947   1.900  0.0000  0.0000  0.0000
    1GR    C443  443   3.191   3.070   1.900  0.0000  0.0000  0.0000
    1GR    C444  444   3.332   3.070   1.900  0.0000  0.0000  0.0000
    1GR    C445  445   2.978   3.193   1.900  0.0000  0.0000  0.0000
    1GR    C446  446   3.120   3.193   1.900  0.0000  0.0000  0.0000
    1GR    C447  447   3.191   3.316   1.900  0.0000  0.0000  0.0000
    1GR    C448  448   3.332   3.316   1.900  0.0000  0.0000  0.0000
    2PMMA   CX1  449   3.049   1.053   2.237  0.5284 -0.5400 -0.4959
    2PMMA   CA2  450   3.144   0.974   2.337 -0.0672 -0.4305  0.5671
    2PMMA   CX3  451   3.269   1.068   2.337 -0.8719  0.0045  0.0871
    2PMMA    C4  452   3.081   0.986   2.473  0.4832  0.3057 -0.7253
    2PMMA    O5  453   3.004   0.907   2.522  0.4125 -0.3297 -0.5067
    2PMMA   OS6  454   3.101   1.104   2.539 -0.3058 -0.0922  0.1183
    2PMMA   CE7  455   3.044   1.125   2.667 -0.6074 -0.1634 -0.2501
    2PMMA   CX8  456   3.164   0.820   2.299 -0.7280 -0.2915  0.5396
    2PMMA   CA9  457   3.287   0.742   2.356 -0.1247  1.0893  0.0015
    2PMMA  CX10  458   3.420   0.795   2.289 -0.5329 -0.4754  0.2928
    2PMMA   C11  459   3.255   0.598   2.311  0.0452 -0.1821 -0.7721
    2PMMA   O12  460   3.302   0.550   2.214  0.2117 -0.2664  0.4673
    2PMMA  OS13  461   3.165   0.527   2.386  0.1238 -0.0423  0.2081
    2PMMA  CE14  462   3.118   0.408   2.334  0.0986 -0.0860  0.5129
    2PMMA  CX15  463   3.292   0.758   2.512 -0.4226  0.3122  0.4321
    2PMMA  CA16  464   3.404   0.695   2.604 -0.3337 -0.1439 -0.0164
    2PMMA  CX17  465   3.370   0.721   2.753 -0.0302 -0.0732  0.3249
    2PMMA   C18  466   3.386   0.541   2.593 -0.7463 -0.4698  0.7838
    2PMMA   O19  467   3.288   0.485   2.629  0.2142  0.4372 -0.0199
    2PMMA  OS20  468   3.488   0.488   2.523 -0.2832 -0.2670 -0.0489
    2PMMA  CE21  469   3.485   0.343   2.503 -0.0811 -0.8704 -0.3946
    2PMMA  CX22  470   3.548   0.749   2.578 -0.4119 -0.1612 -0.4306
    2PMMA  CA23  471   3.678   0.746   2.669  0.1543 -0.4699 -0.0215
    2PMMA  CX24  472   3.713   0.598   2.710 -0.1667 -0.0353  0.3754
    2PMMA   C25  473   3.657   0.840   2.784  0.3613 -0.5360 -0.0114
    2PMMA   O26  474   3.604   0.946   2.779 -0.1014 -0.0295  0.4657
    2PMMA  OS27  475   3.700   0.791   2.898 -0.1416 -0.2329 -0.5180
    2PMMA  CE28  476   3.691   0.862   3.016 -0.5890 -0.4485  0.5025
    2PMMA  CX29  477   3.807   0.806   2.597  0.0029  0.1975  0.4644
    2PMMA  HC30  478   2.987   1.132   2.281  0.9450 -0.1126 -0.6733
    2PMMA  HC31  479   3.103   1.103   2.156  1.1043 -3.0839 -1.7205
    2PMMA  HC32  480   2.969   0.992   2.193  0.4319  0.0023 -1.0718
    2PMMA  HC33  481   3.344   1.032   2.408 -1.0844 -1.6545 -0.4991
    2PMMA  HC34  482   3.248   1.173   2.358  1.0834 -0.0018  2.3641
    2PMMA  HC35  483   3.315   1.076   2.238  0.1775  1.6447  0.6740
    2PMMA  H136  484   3.043   1.234   2.679 -0.2456 -0.0939 -0.8324
    2PMMA  H137  485   3.120   1.096   2.741  1.0155  1.9975 -1.0128
    2PMMA  H138  486   2.951   1.074   2.690 -0.9176  0.7664  0.5820
    2PMMA  HC39  487   3.071   0.762   2.307 -0.7657 -0.1656  1.0715
    2PMMA  HC40  488   3.192   0.825   2.194  2.4145  0.1763  1.3473
    2PMMA  HC41  489   3.410   0.829   2.185 -1.7578 -1.8452 -0.0467
    2PMMA  HC42  490   3.463   0.883   2.337 -2.3513  0.8169 -0.4082
    2PMMA  HC43  491   3.496   0.716   2.293  0.4275  0.2951 -1.8125
    2PMMA  H144  492   3.083   0.416   2.231  1.0739 -1.0805  0.0960
    2PMMA  H145  493   3.033   0.374   2.395  0.6886 -0.8946  0.8885
    2PMMA  H146  494   3.195   0.332   2.340  0.2304  0.0502  0.5512
    2PMMA  HC47  495   3.308   0.863   2.540  0.1690  0.2470  0.3496
    2PMMA  HC48  496   3.193   0.732   2.550 -0.2026 -2.1888 -0.6185
    2PMMA  HC49  497   3.362   0.828   2.774 -1.3738  0.2806 -1.7726
    2PMMA  HC50  498   3.456   0.685   2.810 -0.9391 -0.4869  1.4603
    2PMMA  HC51  499   3.274   0.677   2.784 -0.0634  0.5319  1.0862
    2PMMA  H152  500   3.568   0.301   2.446  1.3601  2.0512 -0.5536
    2PMMA  H153  501   3.396   0.307   2.452  0.6743 -2.4234 -0.6283
    2PMMA  H154  502   3.487   0.292   2.599  0.1911 -0.8173 -0.3710
    2PMMA  HC55  503   3.587   0.708   2.484  0.9960  1.2355 -0.4854
    2PMMA  HC56  504   3.534   0.853   2.548  1.1792  0.7231  1.7369
    2PMMA  HC57  505   3.808   0.587   2.763  0.9667 -2.2182 -2.0056
    2PMMA  HC58  506   3.638   0.548   2.773  0.5634 -1.1240  0.3858
    2PMMA  HC59  507   3.731   0.540   2.619 -0.4611 -0.4807  0.6014
    2PMMA  H160  508   3.744   0.957   3.012 -0.5566 -0.4318  1.2113
    2PMMA  H161  509   3.736   0.801   3.095 -0.2282 -0.8670 -0.0276
    2PMMA  H162  510   3.585   0.874   3.040 -1.0937 -1.5369 -1.1314
    2PMMA  HC63  511   3.849   0.730   2.531  1.7464  0.9901  0.6370
    2PMMA  HC64  512   3.783   0.894   2.536 -0.5999 -1.0251 -1.1017
    2PMMA  HC65  513   3.894   0.822   2.662  0.4476  0.7441 -0.2628
    3ANI     C1  514   0.114   1.885   1.289  0.0518  0.4258  0.2744
    3ANI     O1  515   0.071   1.962   1.398  0.0407 -0.4730  0.4122
    3ANI     C2  516   0.148   2.065   1.446 -0.6601 -0.0191  0.6433
    3ANI     C3  517   0.275   2.092   1.395 -0.3062 -0.7249 -0.1531
    3ANI     C4  518   0.342   2.211   1.443 -1.1036  1.0296  0.1220
    3ANI     C5  519   0.284   2.298   1.536 -0.3501  0.1962 -0.2278
    3ANI     C6  520   0.161   2.266   1.583  0.1084  0.3995 -0.6942
    3ANI     C7  521   0.092   2.147   1.548 -0.2684  0.0064 -0.3720
    3ANI     H1  522   0.206   1.830   1.314  0.7897  2.2829  1.7839
    3ANI     H2  523   0.028   1.821   1.263  0.5555 -0.1959  0.1056
    3ANI     H3  524   0.130   1.944   1.199 -0.9490  0.7023  0.2759
    3ANI     H4  525   0.321   2.028   1.320  2.1747  0.1630  0.5585
    3ANI     H5  526   0.442   2.231   1.405 -0.9665  1.5876  0.7653
    3ANI     H6  527   0.344   2.380   1.576 -0.0074  0.1768 -0.7009
    3ANI     H7  528   0.111   2.339   1.647  1.4655  2.3396 -1.7736
    3ANI     H8  529  -0.005   2.113   1.584 -0.1284 -1.1767 -1.0753
    4ANI     C1  530   0.980   3.114   1.244  0.5316 -0.1229 -0.0287
    4ANI     O1  531   0.941   3.171   1.114 -0.0695  0.0704 -0.6498
    4ANI     C2  532   0.919   3.302   1.086 -0.0916  0.0489 -0.7371
    4ANI     C3  533   0.920   3.344   0.949  0.2299 -0.3305  0.2195
    4ANI     C4  534   0.896   3.479   0.927 -0.0137 -0.7625  0.6367
    4ANI     C5  535   0.866   3.577   1.027  0.0611 -0.2267  0.3134
    4ANI     C6  536   0.874   3.532   1.159  0.0471  0.0102  0.1891
    4ANI     C7  537   0.884   3.391   1.186  0.0410 -0.2112 -0.8769
    4ANI     H1  538   1.072   3.166   1.273  1.0966 -0.8756 -0.4712
    4ANI     H2  539   0.903   3.133   1.320  0.2361  4.0097 -1.1987
    4ANI     H3  540   1.003   3.007   1.234 -1.3893 -0.5298 -0.2568
    4ANI     H4  541   0.918   3.271   0.869  0.5525 -0.8676  0.7007
    4ANI     H5  542   0.882   3.509   0.823 -0.9546  0.0889  1.0045
    4ANI     H6  543   0.851   3.679   0.994  0.7088 -0.4822 -0.7846
    4ANI     H7  544   0.863   3.607   1.237 -3.5111  0.0732 -0.2725
    4ANI     H8  545   0.878   3.357   1.289 -1.8106  0.8513 -0.6009
    5ANI     C1  546   2.165   2.235   2.234 -0.0523  0.1388  0.2849
    5ANI     O1  547   2.104   2.104   2.214 -0.5336 -0.3982 -0.0800
    5ANI     C2  548   2.176   1.991   2.231  0.9176 -0.2396 -0.5822
    5ANI     C3  549   2.101   1.878   2.263  0.2144 -0.5544 -0.5412
    5ANI     C4  550   2.165   1.756   2.266  0.3209  0.1366  0.2766
    5ANI     C5  551   2.302   1.748   2.241  0.3457  0.2870 -0.3482
    5ANI     C6  552   2.375   1.860   2.212 -0.3402 -0.1903 -0.0958
    5ANI     C7  553   2.316   1.988   2.208 -0.3211  0.0777 -0.6578
    5ANI     H1  554   2.208   2.240   2.335 -0.5883  0.7057  0.4883
    5ANI     H2  555   2.252   2.246   2.169  1.1136  0.7905  1.9139
    5ANI     H3  556   2.089   2.313   2.223 -0.0750  0.5613  3.0920
    5ANI     H4  557   1.995   1.883   2.287  0.0948 -2.4287 -0.5627
    5ANI     H5  558   2.099   1.673   2.291  1.5166 -0.9444 -0.1151
    5ANI     H6  559   2.352   1.652   2.254 -1.8274 -0.5873  2.0005
    5ANI     H7  560   2.473   1.838   2.172 -0.6999 -0.7582 -0.6786
    5ANI     H8  561   2.368   2.077   2.175  0.9423 -0.4305 -0.0673
    6ANI     C1  562   2.175   1.396   2.234 -0.0733  0.5002 -0.7398
    6ANI     O1  563   2.209   1.334   2.363 -0.5680 -0.1185  0.6064
    6ANI     C2  564   2.266   1.204   2.384 -0.2277  0.2281 -0.0983
    6ANI     C3  565   2.291   1.109   2.286  0.7759 -0.0320 -0.5268
    6ANI     C4  566   2.339   0.982   2.317 -0.3766 -0.3429  0.1132
    6ANI     C5  567   2.373   0.951   2.453 -0.0505 -0.1962  1.0457
    6ANI     C6  568   2.362   1.046   2.552  0.0177 -0.5119 -0.2099
    6ANI     C7  569   2.302   1.170   2.519 -0.3967  0.2294  0.0038
    6ANI     H1  570   2.157   1.314   2.163  0.5508  0.2811 -0.6471
    6ANI     H2  571   2.074   1.438   2.243 -1.1084 -2.1761  0.7676
    6ANI     H3  572   2.255   1.460   2.194 -1.2047  1.8850 -0.8243
    6ANI     H4  573   2.263   1.131   2.183  0.0950  1.1400 -0.1163
    6ANI     H5  574   2.348   0.897   2.251  1.7515 -1.5952  1.9643
    6ANI     H6  575   2.407   0.854   2.486 -1.8614 -0.9537  0.7363
    6ANI     H7  576   2.393   1.023   2.654  0.1168 -2.1165 -0.5985
    6ANI     H8  577   2.274   1.240   2.597 -3.1232  0.2437 -0.9363
    7ANI     C1  578   2.621   2.776   3.411 -0.4945 -0.3374 -0.0947
    7ANI     O1  579   2.522   2.869   3.409  0.4420  0.5012 -0.1563
    7ANI     C2  580   2.401   2.841   3.457  0.1138  0.4949  0.1300
    7ANI     C3  581   2.321   2.953   3.495 -0.1396 -0.2233 -0.2310
    7ANI     C4  582   2.187   2.934   3.538 -0.0602 -0.0779 -0.2150
    7ANI     C5  583   2.139   2.800   3.543  0.3125 -0.2457  0.0286
    7ANI     C6  584   2.219   2.690   3.523 -0.6457  0.2656 -0.1273
    7ANI     C7  585   2.349   2.710   3.470 -0.3933  0.4386  0.3835
    7ANI     H1  586   2.715   2.833   3.406 -0.3978 -0.3870  1.1330
    7ANI     H2  587   2.615   2.719   3.504 -0.0859  1.2146  0.8972
    7ANI     H3  588   2.620   2.706   3.326 -1.0889 -0.8100  0.2950
    7ANI     H4  589   2.357   3.052   3.470  1.1951 -0.2919  1.3646
    7ANI     H5  590   2.125   3.022   3.555 -1.0977 -0.6820 -0.8164
    7ANI     H6  591   2.040   2.769   3.575  0.5154  0.0751  1.0143
    7ANI     H7  592   2.184   2.590   3.546  0.1375  0.3094  1.3187
    7ANI     H8  593   2.401   2.615   3.465 -0.4995  0.2673  2.1470
    8ANI     C1  594   1.432   0.204   1.548  0.9112 -0.3285  0.4742
    8ANI     O1  595   1.340   0.323   1.560 -0.0596 -0.2085 -0.8286
    8ANI     C2  596   1.383   0.455   1.540  0.1517  0.0866  0.6253
    8ANI     C3  597   1.289   0.538   1.482  0.1802  0.2424  0.1953
    8ANI     C4  598   1.324   0.671   1.466 -0.1869 -0.2277  0.4077
    8ANI     C5  599   1.452   0.717   1.495  0.5494 -0.2658 -0.3653
    8ANI     C6  600   1.550   0.626   1.542 -0.1017 -0.3012  0.7891
    8ANI     C7  601   1.518   0.496   1.561  0.2426  0.8094  0.2173
    8ANI     H1  602   1.508   0.202   1.627  0.2208 -0.5307  1.1249
    8ANI     H2  603   1.388   0.104   1.553  1.0371 -0.3334  1.4208
    8ANI     H3  604   1.496   0.214   1.459  0.6990 -1.3225  0.1979
    8ANI     H4  605   1.187   0.508   1.461 -0.4616  1.6790  1.2088
    8ANI     H5  606   1.253   0.741   1.422  0.0978  0.1724  0.5851
    8ANI     H6  607   1.480   0.820   1.473  0.7668  0.0630  1.3483
    8ANI     H7  608   1.654   0.658   1.541 -0.3126  0.3839 -1.0606
    8ANI     H8  609   1.591   0.430   1.607 -1.6397 -1.0151  0.6211
    9ANI     C1  610   1.505   0.306   3.236  0.1073 -0.5354 -0.0526
    9ANI     O1  611   1.629   0.364   3.205 -0.6005  0.2002 -0.6372
    9ANI     C2  612   1.696   0.454   3.283 -0.0654  0.7338 -0.4880
    9ANI     C3  613   1.814   0.515   3.232 -0.3847  0.1961  0.1109
    9ANI     C4  614   1.887   0.600   3.310  0.7578  0.0769 -0.6861
    9ANI     C5  615   1.843   0.642   3.444  0.4783  0.5628 -0.4751
    9ANI     C6  616   1.725   0.579   3.492 -0.4620 -0.0803  0.2409
    9ANI     C7  617   1.652   0.484   3.411  0.3946 -0.2878 -0.0202
    9ANI     H1  618   1.426   0.381   3.225 -2.8194 -3.4931  0.2345
    9ANI     H2  619   1.486   0.237   3.152 -0.9995 -0.5933  0.2447
    9ANI     H3  620   1.497   0.269   3.338 -0.7537 -1.6979 -0.5293
    9ANI     H4  621   1.846   0.483   3.133  0.0013  0.9418 -0.0067
    9ANI     H5  622   1.979   0.647   3.275  1.5723  1.5032  3.1199
    9ANI     H6  623   1.893   0.723   3.497 -1.3476  1.7138 -0.4566
    9ANI     H7  624   1.688   0.611   3.589  2.0473  1.5203  0.7184
    9ANI     H8  625   1.554   0.456   3.450  0.8824 -1.8855  0.0882
   10ANI     C1  626   0.240   1.344   2.981 -0.4284 -0.1454  0.7383
   10ANI     O1  627   0.245   1.320   3.128 -0.0035 -0.3182 -0.6773
   10ANI     C2  628   0.366   1.297   3.189  0.0117 -0.3300 -0.2373
   10ANI     C3  629   0.492   1.270   3.125  0.2431  0.6722 -0.4913
   10ANI     C4  630   0.608   1.233   3.202  0.4384 -0.9680 -0.4491
   10ANI     C5  631   0.592   1.217   3.338  0.3898 -0.0438 -0.4862
   10ANI     C6  632   0.471   1.247   3.408 -0.3924 -0.3729 -0.2530
   10ANI     C7  633   0.358   1.294   3.330  0.0810 -0.5666 -0.2338
   10ANI     H1  634   0.323   1.405   2.943  0.3238 -1.8614 -0.4117
   10ANI     H2  635   0.242   1.249   2.927 -1.0069  0.4499 -0.3337
   10ANI     H3  636   0.144   1.389   2.956 -0.4452 -1.2120 -1.1906
   10ANI     H4  637   0.494   1.267   3.017 -0.2995 -0.6219 -0.4683
   10ANI     H5  638   0.699   1.203   3.150  1.5954 -0.3140  1.1573
   10ANI     H6  639   0.676   1.167   3.384 -0.0870 -3.1208 -2.7800
   10ANI     H7  640   0.470   1.232   3.516 -0.3810  1.3922  0.0054
   10ANI     H8  641   0.266   1.312   3.384  1.1363 -2.1692  2.1850
   11ANI     C1  642   2.717   1.746   1.547 -0.1232  0.2664 -0.7967
   11ANI     O1  643   2.855   1.763   1.563 -0.9549 -0.4376 -0.2988
   11ANI     C2  644   2.935   1.842   1.492  0.6365 -0.7597  0.3693
   11ANI     C3  645   3.062   1.847   1.525 -0.1155  0.0722 -0.8109
   11ANI     C4  646   3.146   1.946   1.470 -0.1784 -0.1953 -0.3687
   11ANI     C5  647   3.118   2.004   1.348 -0.3519 -0.0500  0.3682
   11ANI     C6  648   2.986   1.990   1.307 -0.8674  0.5014 -0.2153
   11ANI     C7  649   2.891   1.919   1.377 -0.1341 -1.0103 -0.1425
   11ANI     H1  650   2.671   1.695   1.633 -0.8715  2.0749 -0.0851
   11ANI     H2  651   2.675   1.846   1.530  0.8866  0.9091  0.3230
   11ANI     H3  652   2.708   1.682   1.459 -0.5860  1.7732 -1.8794
   11ANI     H4  653   3.086   1.798   1.619 -0.4240  1.0546 -0.2060
   11ANI     H5  654   3.241   1.971   1.517 -0.4820 -0.4748  0.4053
   11ANI     H6  655   3.184   2.075   1.299 -1.2091 -0.8094 -1.9584
   11ANI     H7  656   2.968   2.039   1.212 -0.8409  1.0199  0.0475
   11ANI     H8  657   2.790   1.916   1.339 -0.8564 -2.2524  1.8085
   12ANI     C1  658   0.487   0.128   2.535  0.7188 -0.2522 -0.7425
   12ANI     O1  659   0.547   0.073   2.421 -0.0778  0.1614 -0.0127
   12ANI     C2  660   0.590  -0.058   2.422 -0.2394 -0.0591 -0.2744
   12ANI     C3  661   0.631  -0.115   2.296 -0.1717 -0.2912  0.1916
   12ANI     C4  662   0.684  -0.236   2.280 -0.1840  0.7259  0.2766
   12ANI     C5  663   0.711  -0.316   2.394 -0.1273 -0.5626 -0.2147
   12ANI     C6  664   0.659  -0.272   2.520  0.4670 -0.6966  0.5549
   12ANI     C7  665   0.596  -0.145   2.529 -0.2491 -0.1572 -0.6236
   12ANI     H1  666   0.473   0.235   2.515 -2.2831 -0.3698  0.4487
   12ANI     H2  667   0.392   0.076   2.555  0.3127 -0.1385 -2.2880
   12ANI     H3  668   0.552   0.119   2.623 -1.8459 -0.0066  1.2411
   12ANI     H4  669   0.619  -0.052   2.208 -0.2449 -1.4541 -0.6421
   12ANI     H5  670   0.725  -0.266   2.184 -2.7555  1.1582 -0.9932
   12ANI     H6  671   0.771  -0.405   2.377  0.4296 -0.0669 -0.8381
   12ANI     H7  672   0.669  -0.330   2.611  1.3218  1.3882  1.8341
   12ANI     H8  673   0.576  -0.114   2.632  2.3667 -2.8227  0.7593
   13ANI     C1  674   3.084   0.361   0.917 -0.4931  0.0779  0.0260
   13ANI     O1  675   2.966   0.309   0.975  0.1394  0.0056  0.2710
   13ANI     C2  676   2.880   0.369   1.052  0.4985 -0.6250 -0.0521
   13ANI     C3  677   2.904   0.499   1.111 -0.3653 -0.4697  0.1308
   13ANI     C4  678   2.807   0.554   1.199 -0.2754 -1.0730 -0.1439
   13ANI     C5  679   2.689   0.484   1.221  0.1008 -1.0882  0.1262
   13ANI     C6  680   2.666   0.362   1.157 -0.2711  0.0659 -0.1373
   13ANI     C7  681   2.763   0.303   1.080 -0.5448  0.0906 -0.3938
   13ANI     H1  682   3.056   0.455   0.868 -0.3511  0.2387  0.2523
   13ANI     H2  683   3.162   0.373   0.993  1.4497  1.9689 -2.1666
   13ANI     H3  684   3.128   0.297   0.840 -1.4720 -0.3478 -0.1864
   13ANI     H4  685   2.996   0.554   1.092  1.5843 -3.6011  0.1758
   13ANI     H5  686   2.824   0.643   1.259 -1.6697 -0.7378 -0.2457
   13ANI     H6  687   2.611   0.528   1.281  0.9785 -2.1949  2.1484
   13ANI     H7  688   2.575   0.312   1.186  0.2342 -0.2942  0.8667
   13ANI     H8  689   2.744   0.203   1.041  0.8432  0.1854 -1.3565
   14ANI     C1  690   1.166   0.297   1.209  0.5358  0.4119 -0.5139
   14ANI     O1  691   1.074   0.406   1.200  0.2423  0.0020 -0.2908
   14ANI     C2  692   1.011   0.449   1.086  0.1569 -0.0226 -0.4855
   14ANI     C3  693   1.042   0.403   0.956  0.3166  0.7035 -0.1323
   14ANI     C4  694   0.964   0.436   0.844  0.0343 -0.3250 -0.3774
   14ANI     C5  695   0.859   0.527   0.864 -0.2519  0.0245  0.0984
   14ANI     C6  696   0.830   0.585   0.989  0.0172 -0.3683 -0.1890
   14ANI     C7  697   0.902   0.535   1.103  0.5158 -0.5462  0.1784
   14ANI     H1  698   1.265   0.306   1.163  0.0136  0.7683 -1.5871
   14ANI     H2  699   1.176   0.276   1.316  0.2418  0.0857 -0.5485
   14ANI     H3  700   1.127   0.208   1.157 -1.5001  0.5672  0.6982
   14ANI     H4  701   1.125   0.334   0.945  2.1484  2.4287  2.1307
   14ANI     H5  702   0.988   0.392   0.748 -0.0575  0.0305 -0.5652
   14ANI     H6  703   0.810   0.565   0.775  2.2170  0.9805 -0.9005
   14ANI     H7  704   0.747   0.652   1.010  2.0110  2.5367 -1.4208
   14ANI     H8  705   0.877   0.564   1.205  1.4492  2.4326 -0.4002
   15ANI     C1  706   0.997   0.433   3.480  0.0130 -0.3426  0.0696
   15ANI     O1  707   1.099   0.345   3.419  0.1799 -0.1048 -0.8648
   15ANI     C2  708   1.202   0.298   3.497 -0.0520  0.7805 -0.6506
   15ANI     C3  709   1.250   0.170   3.460  0.2490 -0.2448  0.6223
   15ANI     C4  710   1.352   0.108   3.524 -0.3604  0.0293  0.8444
   15ANI     C5  711   1.418   0.180   3.622 -0.1132  0.6737  0.0091
   15ANI     C6  712   1.364   0.295   3.673  0.3332 -0.1503 -0.8011
   15ANI     C7  713   1.250   0.361   3.615 -0.1754 -0.7078  0.8628
   15ANI     H1  714   1.054   0.525   3.499  0.8257 -0.5724 -1.1327
   15ANI     H2  715   0.922   0.466   3.407 -0.5144  0.3959  0.9439
   15ANI     H3  716   0.952   0.390   3.570  2.2201 -1.7274  0.5535
   15ANI     H4  717   1.213   0.124   3.369 -2.3453 -0.7181  1.8731
   15ANI     H5  718   1.395   0.018   3.480  2.6443  2.1152 -0.6153
   15ANI     H6  719   1.511   0.141   3.661  0.4717  0.5918 -1.4482
   15ANI     H7  720   1.411   0.336   3.762 -0.5832  0.1111 -0.4346
   15ANI     H8  721   1.216   0.456   3.655 -2.1674 -2.0581  2.4310
   16ANI     C1  722   3.283   2.122   1.015  0.5407 -0.3870 -0.2466
   16ANI     O1  723   3.390   2.062   0.933 -0.1083  0.2206  0.4437
   16ANI     C2  724   3.367   2.041   0.797 -0.1105  0.1478  0.4682
   16ANI     C3  725   3.247   2.063   0.738  0.3700 -0.1249  0.6244
   16ANI     C4  726   3.226   2.043   0.603 -0.2456  0.2971  0.0258
   16ANI     C5  727   3.332   2.006   0.518  0.3478  0.5819  0.1050
   16ANI     C6  728   3.454   1.968   0.580  0.1325  0.9253  0.4022
   16ANI     C7  729   3.471   1.983   0.714  0.0546  0.0672 -0.0993
   16ANI     H1  730   3.270   2.226   0.981  2.5243 -0.4072 -1.1238
   16ANI     H2  731   3.188   2.067   1.023  0.4018  0.0892  1.5685
   16ANI     H3  732   3.317   2.129   1.119  1.1036  0.1629 -0.4628
   16ANI     H4  733   3.164   2.098   0.799 -0.5999  0.0423 -0.7576
   16ANI     H5  734   3.127   2.069   0.567 -1.1353 -0.5750  1.7857
   16ANI     H6  735   3.325   1.999   0.409 -0.4756 -0.4202  0.2055
   16ANI     H7  736   3.537   1.942   0.514 -1.3077 -1.2286 -0.6248
   16ANI     H8  737   3.567   1.952   0.755 -0.3181  0.7925  1.3765
   17ANI     C1  738   1.442   1.017   3.687 -0.4321  0.2137  0.5447
   17ANI     O1  739   1.437   0.895   3.612  0.1995  0.0225  0.4300
   17ANI     C2  740   1.442   0.892   3.475  0.0237 -0.7580  0.1803
   17ANI     C3  741   1.413   1.006   3.399 -0.7139  0.4126  0.9342
   17ANI     C4  742   1.413   0.999   3.260  0.4604  0.0208  0.2532
   17ANI     C5  743   1.457   0.883   3.198  0.2397  0.3082  0.3294
   17ANI     C6  744   1.471   0.759   3.277 -1.0371  0.0003  0.2281
   17ANI     C7  745   1.470   0.769   3.414 -0.0661  0.6640 -0.2649
   17ANI     H1  746   1.353   1.078   3.669 -1.5756 -1.7993 -0.8021
   17ANI     H2  747   1.440   0.987   3.792 -0.8467 -1.1973  0.1409
   17ANI     H3  748   1.532   1.075   3.663 -0.2457 -1.2041 -2.3844
   17ANI     H4  749   1.396   1.100   3.451 -0.2520  0.1425  1.5849
   17ANI     H5  750   1.399   1.087   3.199  0.9472 -0.1263 -0.0685
   17ANI     H6  751   1.470   0.884   3.090 -0.4032  1.2531  0.2549
   17ANI     H7  752   1.495   0.663   3.234 -0.9595 -1.3069  3.0801
   17ANI     H8  753   1.477   0.679   3.473  1.2012  0.6652 -0.3978
   18ANI     C1  754   0.538   1.117   2.627  0.1554 -0.2283 -0.6342
   18ANI     O1  755   0.659   1.164   2.688  0.9070 -0.5875 -0.2834
   18ANI     C2  756   0.661   1.267   2.773  0.7074 -0.0033  0.7124
   18ANI     C3  757   0.561   1.359   2.771  0.3135  0.4368 -0.6310
   18ANI     C4  758   0.569   1.472   2.860 -0.8766 -0.1492 -0.3100
   18ANI     C5  759   0.683   1.487   2.940 -0.2198 -0.2168  0.8634
   18ANI     C6  760   0.789   1.392   2.937  1.1314  0.2018  0.2035
   18ANI     C7  761   0.771   1.282   2.853 -0.5532 -0.2870 -0.6881
   18ANI     H1  762   0.496   1.194   2.562 -0.5930  0.4446  0.6280
   18ANI     H2  763   0.565   1.039   2.554  1.0285  2.1417 -2.9216
   18ANI     H3  764   0.462   1.082   2.698 -0.2154  0.5625 -0.6348
   18ANI     H4  765   0.473   1.358   2.707 -1.2409  0.5204  1.4567
   18ANI     H5  766   0.487   1.544   2.862  0.1173  0.9923  1.0294
   18ANI     H6  767   0.689   1.564   3.016  0.3187 -0.6021  1.2119
   18ANI     H7  768   0.870   1.404   3.008 -0.3617  0.0106  1.9524
   18ANI     H8  769   0.845   1.203   2.858 -0.8486 -0.6707 -2.0402
   19ANI     C1  770   1.563   1.043   0.427 -0.5943 -0.6717  0.9645
   19ANI     O1  771   1.657   1.078   0.324 -0.4543  0.4095 -0.1560
   19ANI     C2  772   1.635   1.187   0.240 -0.5760  0.3147 -0.2389
   19ANI     C3  773   1.559   1.290   0.285 -0.1854  0.1561 -0.9281
   19ANI     C4  774   1.507   1.387   0.191  0.0503  0.2317  0.3357
   19ANI     C5  775   1.554   1.380   0.060  0.0867 -0.2352 -0.2318
   19ANI     C6  776   1.623   1.270   0.012  0.3072  0.1441  0.7239
   19ANI     C7  777   1.681   1.184   0.111  0.5999 -0.1081  0.3962
   19ANI     H1  778   1.466   1.038   0.376  0.7389 -1.9495 -1.5709
   19ANI     H2  779   1.567   0.944   0.474  0.0710 -1.0802  0.0828
   19ANI     H3  780   1.553   1.113   0.511  1.3675  0.1907  0.5192
   19ANI     H4  781   1.528   1.294   0.389  0.0413 -1.5503 -0.7800
   19ANI     H5  782   1.446   1.470   0.225 -1.1837 -0.7426  0.5350
   19ANI     H6  783   1.518   1.448  -0.017 -0.3436 -2.8749 -2.4327
   19ANI     H7  784   1.668   1.269  -0.086 -0.8821  2.5307  0.1043
   19ANI     H8  785   1.748   1.107   0.075  1.6193  0.6744  0.5870
   20ANI     C1  786   0.570   1.584   3.301 -0.7662 -1.2173 -0.0214
   20ANI     O1  787   0.463   1.673   3.314 -0.4735  0.3061 -0.3823
   20ANI     C2  788   0.480   1.803   3.361 -0.2460 -0.2619 -0.3662
   20ANI     C3  789   0.609   1.861   3.403  0.2208  0.3630 -0.1183
   20ANI     C4  790   0.612   1.990   3.455 -0.5561  1.1379  0.3024
   20ANI     C5  791   0.501   2.070   3.450 -0.1011 -0.7104 -0.0802
   20ANI     C6  792   0.371   2.020   3.414 -0.4119  0.0446 -0.2731
   20ANI     C7  793   0.363   1.887   3.369  0.0775 -0.8349 -0.1388
   20ANI     H1  794   0.551   1.491   3.246 -1.7481 -0.3372 -1.1668
   20ANI     H2  795   0.659   1.632   3.259 -0.2697 -1.8303  0.3067
   20ANI     H3  796   0.600   1.558   3.403  0.0977 -2.4542 -0.5774
   20ANI     H4  797   0.694   1.793   3.399  0.1080  0.2716 -1.3606
   20ANI     H5  798   0.707   2.035   3.481  0.1034  0.3917 -0.7439
   20ANI     H6  799   0.509   2.172   3.488 -2.2733 -0.5255 -0.0241
   20ANI     H7  800   0.285   2.086   3.421 -0.9042 -0.6776  0.5390
   20ANI     H8  801   0.270   1.847   3.331 -1.1804  1.3606  0.5707
   21ANI     C1  802   0.433   0.675   1.535  0.4621  0.1497 -0.4350
   21ANI     O1  803   0.529   0.786   1.554  0.9206 -0.2129  0.2937
   21ANI     C2  804   0.665   0.771   1.559 -0.0853 -0.3191  0.4810
   21ANI     C3  805   0.728   0.651   1.533 -0.2717  0.0378  0.9694
   21ANI     C4  806   0.866   0.643   1.545  0.4031 -0.2619  0.4586
   21ANI     C5  807   0.941   0.755   1.585 -0.4366  0.9295  0.2245
   21ANI     C6  808   0.872   0.883   1.588 -0.7115  0.3336  0.6546
   21ANI     C7  809   0.735   0.890   1.581 -0.6667 -0.1318  0.3576
   21ANI     H1  810   0.451   0.599   1.612 -1.6610  0.6994  0.6410
   21ANI     H2  811   0.326   0.697   1.543  0.0818 -1.8067  0.2363
   21ANI     H3  812   0.454   0.634   1.435  1.9113 -0.5835  0.1591
   21ANI     H4  813   0.669   0.564   1.505 -0.5531  0.4567  0.2343
   21ANI     H5  814   0.920   0.552   1.523  2.4691  1.4599 -1.7733
   21ANI     H6  815   1.046   0.750   1.610 -0.6187  0.9708  1.0239
   21ANI     H7  816   0.918   0.981   1.597 -1.9754  0.9265  0.8557
   21ANI     H8  817   0.677   0.981   1.597  0.0859  0.1751  1.4184
   22ANI     C1  818   0.110   0.024   3.061 -0.0175 -0.3556  0.0322
   22ANI     O1  819   0.131  -0.100   3.012 -0.2416 -0.4232  0.0446
   22ANI     C2  820   0.097  -0.139   2.881 -0.7429 -0.3084 -0.3640
   22ANI     C3  821   0.054  -0.053   2.782  0.6401  0.2620 -0.0998
   22ANI     C4  822   0.023  -0.101   2.645  0.3172  0.0863 -0.1092
   22ANI     C5  823   0.053  -0.236   2.612  0.5763  1.1001 -0.9197
   22ANI     C6  824   0.092  -0.315   2.715 -0.3993  0.4426  0.1055
   22ANI     C7  825   0.112  -0.272   2.844 -0.7211 -0.5190 -0.0524
   22ANI     H1  826   0.168   0.097   3.003  0.6828  0.4948  1.7412
   22ANI     H2  827   0.001   0.042   3.064  0.0266  0.9135 -3.5100
   22ANI     H3  828   0.150   0.034   3.163  0.4186 -0.0188 -0.1682
   22ANI     H4  829   0.037   0.052   2.806 -0.0273 -0.2871  1.9072
   22ANI     H5  830  -0.016  -0.032   2.570  2.9452  0.0847 -1.5135
   22ANI     H6  831   0.049  -0.273   2.510  1.1938  0.9032 -0.8745
   22ANI     H7  832   0.115  -0.421   2.706 -0.1369  0.5167 -0.1089
   22ANI     H8  833   0.148  -0.343   2.918  1.5303  0.5666 -0.0800
   23ANI     C1  834   1.281   2.791   0.791 -0.4398 -0.0732  0.6975
   23ANI     O1  835   1.314   2.924   0.759 -0.1946 -0.0868  0.3281
   23ANI     C2  836   1.349   2.962   0.631  0.1743  0.6948 -0.1799
   23ANI     C3  837   1.371   2.874   0.528 -0.7714 -0.1300 -0.2853
   23ANI     C4  838   1.405   2.924   0.399 -0.0697  0.1640  0.5302
   23ANI     C5  839   1.426   3.067   0.386  0.3237  0.0830  0.1936
   23ANI     C6  840   1.401   3.153   0.490  0.7560 -0.2609 -0.2782
   23ANI     C7  841   1.365   3.101   0.610  0.7077  0.1092 -0.0502
   23ANI     H1  842   1.228   2.746   0.707 -0.3405  1.2043 -0.0634
   23ANI     H2  843   1.365   2.721   0.802  0.6636  1.6318  4.2493
   23ANI     H3  844   1.217   2.771   0.878 -2.1078 -1.8366 -0.9052
   23ANI     H4  845   1.381   2.768   0.550  1.8755  0.4766  1.7354
   23ANI     H5  846   1.435   2.858   0.318 -0.1688  1.0876 -0.2720
   23ANI     H6  847   1.464   3.101   0.291  0.3912  0.0607  0.2124
   23ANI     H7  848   1.424   3.258   0.472 -1.0140 -0.3027 -3.0699
   23ANI     H8  849   1.354   3.158   0.702 -2.7378 -1.5961  0.6988
   24ANI     C1  850   0.913   1.212   2.406  0.0409 -0.0207 -0.3762
   24ANI     O1  851   0.879   1.323   2.322 -0.4196  0.5405 -0.4137
   24ANI     C2  852   0.814   1.436   2.373 -0.1104  0.3001 -0.5943
   24ANI     C3  853   0.783   1.457   2.511  0.3339 -0.6885 -0.3168
   24ANI     C4  854   0.719   1.576   2.549  0.2153 -0.3189  0.3295
   24ANI     C5  855   0.690   1.674   2.447  0.0922 -0.1063 -0.5926
   24ANI     C6  856   0.713   1.649   2.312  0.0318 -0.4820  0.2844
   24ANI     C7  857   0.782   1.532   2.282  0.1180 -0.3442  0.0299
   24ANI     H1  858   0.953   1.247   2.502  0.2975 -1.5888  0.1178
   24ANI     H2  859   0.819   1.166   2.437  0.4013  0.3998  1.4068
   24ANI     H3  860   0.976   1.134   2.360  0.2375 -1.1471  1.7013
   24ANI     H4  861   0.797   1.381   2.588  1.9305 -1.6747 -1.5531
   24ANI     H5  862   0.693   1.605   2.650 -2.1739 -1.3342  0.0495
   24ANI     H6  863   0.643   1.769   2.472 -2.0147 -1.1642 -0.3798
   24ANI     H7  864   0.688   1.722   2.235 -2.9379 -0.9039  0.7632
   24ANI     H8  865   0.809   1.508   2.180  0.6494 -0.8286  0.2785
   25ANI     C1  866   1.040   0.207   0.053  0.1923 -0.2107 -0.3369
   25ANI     O1  867   0.983   0.329   0.021  0.1845  0.7060 -0.0945
   25ANI     C2  868   0.852   0.354   0.031  0.4585 -0.9563  0.5689
   25ANI     C3  869   0.820   0.490   0.045 -0.2760  0.4433  0.1135
   25ANI     C4  870   0.687   0.526   0.053  0.2314  0.1549 -0.5950
   25ANI     C5  871   0.586   0.432   0.053 -0.1592 -0.2832 -0.1995
   25ANI     C6  872   0.617   0.297   0.051 -0.9416  0.8916 -0.0600
   25ANI     C7  873   0.752   0.255   0.024  0.2433 -0.1817  0.1914
   25ANI     H1  874   0.977   0.118   0.057 -0.2893  0.1744  1.2181
   25ANI     H2  875   1.120   0.187  -0.019 -0.6942  0.9883 -1.6805
   25ANI     H3  876   1.082   0.222   0.153 -0.7724 -1.4109  0.2594
   25ANI     H4  877   0.898   0.566   0.050 -0.0854  0.4534 -2.3208
   25ANI     H5  878   0.662   0.632   0.056  0.0407  0.0925  0.3471
   25ANI     H6  879   0.481   0.456   0.066 -0.2897 -0.8751 -0.1083
   25ANI     H7  880   0.539   0.223   0.063  0.4501 -1.1776 -3.1820
   25ANI     H8  881   0.776   0.150   0.014 -2.6699 -0.9557  0.6747
   26ANI     C1  882   2.702   2.738   0.502  0.1080  0.4482  0.2412
   26ANI     O1  883   2.692   2.628   0.416  0.0043 -0.3448  0.0598
   26ANI     C2  884   2.567   2.586   0.372  0.0904 -0.9854  0.1261
   26ANI     C3  885   2.455   2.670   0.360 -0.6231  0.7677 -0.1772
   26ANI     C4  886   2.331   2.619   0.317 -0.0197 -0.0234 -0.1538
   26ANI     C5  887   2.315   2.479   0.308  0.1542  0.3410  0.1960
   26ANI     C6  888   2.427   2.395   0.320  0.0476 -0.0839 -0.8084
   26ANI     C7  889   2.549   2.446   0.349  0.5247  0.1792  0.2548
   26ANI     H1  890   2.806   2.765   0.525  1.6203 -1.7631 -3.5641
   26ANI     H2  891   2.654   2.827   0.459  0.5254  0.9950  0.8979
   26ANI     H3  892   2.644   2.714   0.591  0.8865  0.5097  0.7703
   26ANI     H4  893   2.465   2.775   0.386  0.0147  0.5158  0.6058
   26ANI     H5  894   2.246   2.686   0.308  0.0186  0.5869  3.2455
   26ANI     H6  895   2.221   2.436   0.275  0.2243  1.0666 -0.9842
   26ANI     H7  896   2.413   2.288   0.306 -1.4619 -0.0528  0.2932
   26ANI     H8  897   2.633   2.379   0.364 -0.2779 -0.5019  1.7511
   27ANI     C1  898   2.790   1.756   0.949  0.1726 -0.3271 -0.4914
   27ANI     O1  899   2.799   1.892   0.981 -0.3710  0.6143 -0.2406
   27ANI     C2  900   2.819   1.988   0.888 -0.0684 -0.2089 -0.2477
   27ANI     C3  901   2.802   2.123   0.919 -0.0961 -0.5393 -0.3692
   27ANI     C4  902   2.836   2.222   0.826 -0.1854  0.1695 -0.8960
   27ANI     C5  903   2.883   2.180   0.701  0.6358  0.0388  0.4898
   27ANI     C6  904   2.891   2.047   0.658  0.7914 -0.0473 -1.0066
   27ANI     C7  905   2.865   1.951   0.755 -0.6900 -0.4193 -0.3368
   27ANI     H1  906   2.892   1.730   0.919  0.7676 -1.4821  2.4121
   27ANI     H2  907   2.755   1.708   1.041  0.8209  1.9332  0.9817
   27ANI     H3  908   2.725   1.739   0.862 -2.1046 -0.4298  1.1782
   27ANI     H4  909   2.762   2.155   1.015  0.2164 -1.5034  0.0836
   27ANI     H5  910   2.838   2.328   0.849 -0.0320  0.0505 -0.3637
   27ANI     H6  911   2.887   2.249   0.617  1.9021 -0.3396  0.2328
   27ANI     H7  912   2.898   2.019   0.553  1.7264  0.7667 -1.1644
   27ANI     H8  913   2.869   1.845   0.731 -0.4378 -0.9063  1.7176
   28ANI     C1  914   2.271   0.525   1.047 -0.0523 -0.0439  0.5943
   28ANI     O1  915   2.272   0.428   0.948 -0.1821  0.2591  0.0762
   28ANI     C2  916   2.310   0.295   0.969 -0.0263 -0.1279  0.5318
   28ANI     C3  917   2.327   0.206   0.857  0.5176 -0.2837 -0.3472
   28ANI     C4  918   2.349   0.068   0.877 -0.3968 -0.0794 -0.3380
   28ANI     C5  919   2.357   0.021   1.009 -0.4131 -0.0966  0.5429
   28ANI     C6  920   2.352   0.108   1.122 -0.1554  0.6120 -0.6316
   28ANI     C7  921   2.320   0.243   1.101  0.2184 -0.1128 -0.4324
   28ANI     H1  922   2.360   0.520   1.112  0.3504 -4.1570 -0.1089
   28ANI     H2  923   2.255   0.623   1.001  0.3263 -0.8859 -1.4060
   28ANI     H3  924   2.181   0.507   1.106  0.4557  2.8961  2.3570
   28ANI     H4  925   2.328   0.253   0.759  0.8189 -0.9606 -0.6737
   28ANI     H5  926   2.348   0.011   0.785  0.4846 -2.0471  0.8623
   28ANI     H6  927   2.380  -0.083   1.028  0.8435  0.2024  0.6671
   28ANI     H7  928   2.367   0.064   1.220  0.1964  0.6565 -0.6636
   28ANI     H8  929   2.306   0.313   1.183 -0.0553  0.2788 -0.8085
   29ANI     C1  930   1.212   2.165   0.490  0.0427 -0.0419  0.6622
   29ANI     O1  931   1.264   2.295   0.533 -0.2451  0.3975  0.0035
   29ANI     C2  932   1.258   2.396   0.447  0.2338 -0.1178  0.1292
   29ANI     C3  933   1.210   2.521   0.482  1.6418  0.2611 -0.0853
   29ANI     C4  934   1.213   2.627   0.396  0.5524 -0.5589  0.7453
   29ANI     C5  935   1.260   2.609   0.261 -0.1500  1.0886  0.8585
   29ANI     C6  936   1.305   2.482   0.222 -0.2069  0.0930 -0.4251
   29ANI     C7  937   1.309   2.379   0.312 -0.1338  0.4747  0.2537
   29ANI     H1  938   1.103   2.160   0.478  0.0136  0.9358  0.4534
   29ANI     H2  939   1.263   2.127   0.401  1.7263  2.7992  0.3353
   29ANI     H3  940   1.246   2.096   0.568 -0.6057 -1.0823  0.0387
   29ANI     H4  941   1.170   2.535   0.582  2.3477  0.4334  0.1751
   29ANI     H5  942   1.185   2.728   0.423  1.7921 -0.5322  1.9486
   29ANI     H6  943   1.276   2.694   0.196 -0.7689 -0.1683 -1.0161
   29ANI     H7  944   1.349   2.476   0.123 -1.1049 -0.0387 -0.8268
   29ANI     H8  945   1.338   2.279   0.281 -2.1580 -0.1153  0.2172
   30ANI     C1  946   0.238   0.295   3.379 -0.6220 -0.2161  0.3757
   30ANI     O1  947   0.099   0.269   3.363 -0.0204  0.7981  0.2822
   30ANI     C2  948   0.003   0.325   3.453  0.0630 -0.0434 -0.2163
   30ANI     C3  949  -0.126   0.343   3.413  0.0346  0.1458 -0.5581
   30ANI     C4  950  -0.230   0.379   3.498  0.5884  0.4710 -0.0229
   30ANI     C5  951  -0.201   0.394   3.629 -0.3571  0.8367 -0.5137
   30ANI     C6  952  -0.065   0.371   3.681  0.3968 -0.2632  0.6683
   30ANI     C7  953   0.035   0.339   3.590 -0.4371 -0.4688  0.0380
   30ANI     H1  954   0.268   0.397   3.352  1.5222 -1.1453 -0.8305
   30ANI     H2  955   0.279   0.279   3.479  2.1166  1.4787 -0.4261
   30ANI     H3  956   0.296   0.230   3.313 -1.6728  0.6111 -1.4091
   30ANI     H4  957  -0.149   0.341   3.307  1.4636  0.7163 -0.8859
   30ANI     H5  958  -0.324   0.404   3.450  0.5639  0.3499 -0.0362
   30ANI     H6  959  -0.281   0.414   3.700 -1.7393 -0.9161 -1.5496
   30ANI     H7  960  -0.040   0.381   3.786 -0.5817 -0.6943  0.9495
   30ANI     H8  961   0.134   0.308   3.623 -0.0191  2.7146  2.0090
   31ANI     C1  962   2.179   1.216   1.120  0.2677 -0.7868  0.7226
   31ANI     O1  963   2.257   1.106   1.060 -0.5405  0.1103 -0.1452
   31ANI     C2  964   2.223   1.038   0.955  0.5605 -0.2414  0.7934
   31ANI     C3  965   2.309   0.939   0.908  0.4382 -0.4153 -0.8876
   31ANI     C4  966   2.280   0.869   0.794  0.0497  0.2250 -0.0788
   31ANI     C5  967   2.164   0.889   0.728  0.2427  0.1576  0.5103
   31ANI     C6  968   2.078   0.997   0.761 -0.4273  0.1436 -0.0322
   31ANI     C7  969   2.105   1.069   0.878 -0.2653  0.1283 -0.5839
   31ANI     H1  970   2.155   1.291   1.043  1.2297 -0.3228  0.8644
   31ANI     H2  971   2.090   1.176   1.170 -0.0661 -0.9165  0.0284
   31ANI     H3  972   2.241   1.262   1.198  1.4618 -1.1739  0.0162
   31ANI     H4  973   2.397   0.909   0.963 -0.5450 -0.9713  0.4069
   31ANI     H5  974   2.357   0.795   0.772  0.6562  0.7680  0.2192
   31ANI     H6  975   2.133   0.838   0.637 -1.7609 -1.8913  2.2761
   31ANI     H7  976   1.992   1.019   0.699 -1.5798 -0.2305  1.3941
   31ANI     H8  977   2.025   1.136   0.907 -0.4504  0.0425 -0.8994
   32ANI     C1  978   2.485   0.751   0.361  0.6382  0.1512  0.3233
   32ANI     O1  979   2.461   0.678   0.487  0.7944  0.5490  0.1101
   32ANI     C2  980   2.551   0.649   0.584  0.5491  0.2944  0.2883
   32ANI     C3  981   2.502   0.556   0.675 -0.3083  0.5212 -0.2874
   32ANI     C4  982   2.587   0.507   0.779  0.2252 -0.4201 -0.3932
   32ANI     C5  983   2.711   0.571   0.793  0.2309 -0.1141  0.0249
   32ANI     C6  984   2.756   0.672   0.705  0.3301  0.1109 -0.2959
   32ANI     C7  985   2.676   0.711   0.595  0.3714  0.7311  0.2095
   32ANI     H1  986   2.534   0.846   0.383 -0.0964  0.2022  1.7997
   32ANI     H2  987   2.553   0.696   0.295 -0.0929 -0.6071  0.1850
   32ANI     H3  988   2.400   0.782   0.298 -1.1516 -2.0826  1.5323
   32ANI     H4  989   2.403   0.513   0.667  0.4221 -0.9980 -1.6248
   32ANI     H5  990   2.559   0.431   0.851 -0.1371 -1.7031 -1.8467
   32ANI     H6  991   2.772   0.538   0.876  1.4394  2.0898  0.0661
   32ANI     H7  992   2.856   0.715   0.711  0.0157  0.9060 -0.7162
   32ANI     H8  993   2.704   0.781   0.516 -1.7254 -1.0290 -2.1770
   33ANI     C1  994   1.615   1.378   3.111 -0.0310 -0.2912 -0.8152
   33ANI     O1  995   1.679   1.359   2.993 -0.0120  0.0690 -0.1006
   33ANI     C2  996   1.630   1.281   2.888  0.9028  0.3229 -0.4620
   33ANI     C3  997   1.513   1.203   2.898 -0.3822 -1.0623 -0.4335
   33ANI     C4  998   1.470   1.136   2.778  0.2895  0.3397  0.1498
   33ANI     C5  999   1.542   1.146   2.658  0.5570 -0.0889 -0.1264
   33ANI     C6 1000   1.664   1.213   2.655  0.2645 -0.1256  0.1857
   33ANI     C7 1001   1.702   1.285   2.768 -0.2052  0.1914 -0.0086
   33ANI     H1 1002   1.674   1.448   3.173  0.1152 -0.3019 -0.9403
   33ANI     H2 1003   1.515   1.418   3.094  0.0195 -0.3706 -1.2935
   33ANI     H3 1004   1.607   1.282   3.162  0.8669 -1.1080 -2.1920
   33ANI     H4 1005   1.445   1.190   2.982  0.9928  1.0182  1.0636
   33ANI     H5 1006   1.377   1.081   2.766  0.2694  0.3744  0.1488
   33ANI     H6 1007   1.500   1.108   2.566 -1.0055 -2.0089  1.3149
   33ANI     H7 1008   1.725   1.223   2.566  2.8171 -1.2769  1.7577
   33ANI     H8 1009   1.791   1.347   2.765  1.7209 -2.5299 -0.1618
   34ANI     C1 1010   3.324   3.190   3.182 -0.4428 -0.5578 -0.5936
   34ANI     O1 1011   3.422   3.127   3.273  0.8092  0.3809 -0.2407
   34ANI     C2 1012   3.401   2.999   3.321 -0.2367  0.1700 -0.0144
   34ANI     C3 1013   3.301   2.910   3.278 -0.4950  0.3537 -0.8055
   34ANI     C4 1014   3.290   2.787   3.338 -0.1362 -0.2913 -0.1719
   34ANI     C5 1015   3.375   2.746   3.437 -0.6057 -0.0776  0.7891
   34ANI     C6 1016   3.471   2.836   3.481 -0.3103  0.5043 -0.2894
   34ANI     C7 1017   3.482   2.963   3.423  0.1009  0.0762 -0.5331
   34ANI     H1 1018   3.223   3.159   3.208 -0.2605  0.9740  2.1970
   34ANI     H2 1019   3.336   3.300   3.185 -0.2073 -0.5905 -0.2497
   34ANI     H3 1020   3.342   3.154   3.080 -1.4980 -0.2829 -0.8858
   34ANI     H4 1021   3.237   2.930   3.193 -1.4955  0.9180  0.0711
   34ANI     H5 1022   3.220   2.710   3.307  0.7077 -0.9341 -0.4799
   34ANI     H6 1023   3.374   2.649   3.485  2.1114  0.4717  2.0782
   34ANI     H7 1024   3.539   2.796   3.556  2.1915  3.3621 -0.9472
   34ANI     H8 1025   3.566   3.025   3.452  0.0911 -0.1986  0.0896
   35ANI     C1 1026   2.151   2.073   3.583  0.0262  0.2317 -0.5349
   35ANI     O1 1027   2.067   2.099   3.474 -0.1778  0.1549 -0.2348
   35ANI     C2 1028   1.936   2.134   3.485 -0.2423  0.0343  0.0381
   35ANI     C3 1029   1.883   2.164   3.614  0.5366 -0.9104  0.4642
   35ANI     C4 1030   1.741   2.192   3.617 -0.3803  0.8628 -0.3096
   35ANI     C5 1031   1.660   2.186   3.495  0.7846  0.4521 -0.2138
   35ANI     C6 1032   1.715   2.154   3.377 -0.2750 -0.3046 -0.3545
   35ANI     C7 1033   1.852   2.133   3.374 -0.3063  0.0144 -0.1845
   35ANI     H1 1034   2.256   2.054   3.554 -0.1419  1.2561 -1.8779
   35ANI     H2 1035   2.147   2.156   3.655  1.7137 -0.8671  0.8788
   35ANI     H3 1036   2.122   1.988   3.645  2.0933  0.4270  0.7583
   35ANI     H4 1037   1.934   2.147   3.708  1.0012 -0.3328  0.3209
   35ANI     H5 1038   1.701   2.230   3.710 -0.3590 -1.0068  0.4839
   35ANI     H6 1039   1.554   2.208   3.502  0.2024 -1.6071 -2.1644
   35ANI     H7 1040   1.654   2.122   3.292  0.9827 -1.6810 -0.7477
   35ANI     H8 1041   1.898   2.103   3.280  0.2761 -1.1079  0.4583
   36ANI     C1 1042   2.949   2.582   2.518  0.2215 -0.6980 -0.1636
   36ANI     O1 1043   2.958   2.535   2.654  0.0665 -0.5130 -0.6599
   36ANI     C2 1044   2.926   2.405   2.684 -0.2795  0.1923 -0.0967
   36ANI     C3 1045   2.934   2.304   2.584  0.1736  0.0574 -0.6785
   36ANI     C4 1046   2.881   2.180   2.596 -0.2235  0.4608 -0.0782
   36ANI     C5 1047   2.827   2.151   2.721  0.4951  0.3882  1.0565
   36ANI     C6 1048   2.822   2.252   2.825 -0.5025 -0.6635  0.9798
   36ANI     C7 1049   2.877   2.378   2.805  0.9006  0.7863 -0.4370
   36ANI     H1 1050   2.962   2.691   2.519  0.2509 -0.6538 -2.9319
   36ANI     H2 1051   3.040   2.559   2.461 -0.0106  0.8824 -1.1725
   36ANI     H3 1052   2.862   2.549   2.460  0.9580 -0.4162 -1.4471
   36ANI     H4 1053   2.972   2.324   2.484  1.0748 -1.3126 -0.6199
   36ANI     H5 1054   2.877   2.101   2.522 -0.5030 -0.7542  1.2122
   36ANI     H6 1055   2.788   2.051   2.733 -0.3139  0.2016 -2.3515
   36ANI     H7 1056   2.785   2.222   2.922  1.2218 -0.7099  1.6503
   36ANI     H8 1057   2.867   2.460   2.876 -1.2320 -0.2628  0.5299
   37ANI     C1 1058   1.463   1.801   2.252 -0.0646 -0.4731  0.0890
   37ANI     O1 1059   1.556   1.916   2.226 -0.5239  0.3389 -0.3153
   37ANI     C2 1060   1.597   2.013   2.311 -0.7382 -0.0570 -0.7421
   37ANI     C3 1061   1.689   2.106   2.266  0.8809 -0.4272 -0.4952
   37ANI     C4 1062   1.725   2.209   2.347 -0.4450  0.9146 -0.6620
   37ANI     C5 1063   1.681   2.223   2.481  0.1096 -0.2188 -0.0862
   37ANI     C6 1064   1.573   2.142   2.525  0.0391 -1.0626 -0.1737
   37ANI     C7 1065   1.536   2.035   2.436 -0.3581 -0.2437 -0.3540
   37ANI     H1 1066   1.529   1.722   2.290  0.6884  0.0129 -0.1870
   37ANI     H2 1067   1.383   1.835   2.319 -1.5570 -0.4911 -1.6608
   37ANI     H3 1068   1.426   1.759   2.158  0.5700  1.4743 -1.0562
   37ANI     H4 1069   1.724   2.096   2.163 -0.5697 -0.3189 -1.0159
   37ANI     H5 1070   1.792   2.280   2.298  0.9484 -0.1206 -0.2861
   37ANI     H6 1071   1.719   2.306   2.540 -3.2422  1.0092  0.4686
   37ANI     H7 1072   1.532   2.152   2.625  0.4557 -0.5528 -0.0505
   37ANI     H8 1073   1.456   1.971   2.473 -1.4594  0.8220 -0.8657
   38ANI     C1 1074   2.881   1.021   0.554  0.5406  0.0690 -0.0645
   38ANI     O1 1075   2.792   1.039   0.448 -0.4369 -0.4887 -1.0669
   38ANI     C2 1076   2.820   1.026   0.313  0.2494  0.0511 -0.4868
   38ANI     C3 1077   2.951   1.014   0.264 -0.0371  0.0867  0.0036
   38ANI     C4 1078   2.974   1.022   0.125  0.1091 -0.0792  0.0649
   38ANI     C5 1079   2.872   1.040   0.039  0.9716 -0.1510 -0.4589
   38ANI     C6 1080   2.742   1.048   0.088  0.2747  0.0244 -0.1824
   38ANI     C7 1081   2.712   1.037   0.225  0.5726  0.6539  0.5883
   38ANI     H1 1082   2.983   1.042   0.521 -0.3367 -1.5295 -4.1385
   38ANI     H2 1083   2.856   1.105   0.620 -1.4373  0.5186 -1.3279
   38ANI     H3 1084   2.873   0.922   0.601  2.2465 -0.0447  0.0181
   38ANI     H4 1085   3.034   1.009   0.333  1.2945 -0.2957 -1.5906
   38ANI     H5 1086   3.078   1.018   0.094  0.6717  1.2222  1.6784
   38ANI     H6 1087   2.896   1.040  -0.067  2.1663  2.1739 -0.2236
   38ANI     H7 1088   2.659   1.052   0.017  0.3082  0.5232 -0.1932
   38ANI     H8 1089   2.606   1.046   0.249  0.1068 -1.0270 -0.7035
   39ANI     C1 1090   0.077   1.509   0.649  0.5455 -0.5636 -0.0157
   39ANI     O1 1091   0.072   1.390   0.730 -0.7391  0.6347 -0.1914
   39ANI     C2 1092   0.190   1.332   0.778  0.0899 -0.4211 -0.0755
   39ANI     C3 1093   0.315   1.404   0.777  0.4537  0.0887 -0.0546
   39ANI     C4 1094   0.432   1.353   0.832  0.7055  0.5645  0.5829
   39ANI     C5 1095   0.435   1.213   0.865 -0.9047 -0.0634  0.7698
   39ANI     C6 1096   0.312   1.138   0.862 -0.2633  0.8774  0.2179
   39ANI     C7 1097   0.192   1.201   0.826  0.1232  0.2589  0.1027
   39ANI     H1 1098  -0.027   1.539   0.629  0.7544  0.7843  0.8190
   39ANI     H2 1099   0.127   1.591   0.700  0.9040 -1.4558  1.0690
   39ANI     H3 1100   0.123   1.496   0.550 -0.2987  0.9898 -0.6332
   39ANI     H4 1101   0.321   1.505   0.736 -1.4782 -0.1081 -0.8691
   39ANI     H5 1102   0.522   1.413   0.841  2.4742 -1.6189 -1.8854
   39ANI     H6 1103   0.529   1.165   0.891 -0.0491  0.5591 -1.0646
   39ANI     H7 1104   0.306   1.033   0.888  2.3707  0.6311  0.0084
   39ANI     H8 1105   0.103   1.140   0.812  0.1168 -0.0512  1.4377
   40ANI     C1 1106   0.150   2.350   0.718  0.1463 -0.3022 -0.0511
   40ANI     O1 1107   0.283   2.360   0.666 -0.5459 -0.0861  0.4527
   40ANI     C2 1108   0.346   2.481   0.654  0.3575 -0.2522  0.2167
   40ANI     C3 1109   0.478   2.484   0.616  0.2963 -0.2984  0.0682
   40ANI     C4 1110   0.545   2.602   0.598 -0.1473 -0.6562  0.4048
   40ANI     C5 1111   0.476   2.729   0.614 -0.3335  0.4036  0.9102
   40ANI     C6 1112   0.341   2.729   0.647  0.4329 -0.3977  0.0462
   40ANI     C7 1113   0.273   2.600   0.667  0.0359 -0.5454  0.1245
   40ANI     H1 1114   0.081   2.420   0.671  0.6288 -0.8384 -1.6257
   40ANI     H2 1115   0.119   2.250   0.686 -0.6101  0.2363 -1.0199
   40ANI     H3 1116   0.143   2.365   0.826 -1.0498  1.4830 -0.3664
   40ANI     H4 1117   0.535   2.392   0.604  0.1865 -0.5370  1.3058
   40ANI     H5 1118   0.647   2.593   0.561  0.7112 -1.1004  2.7716
   40ANI     H6 1119   0.529   2.823   0.603 -1.3630  1.1204  2.0452
   40ANI     H7 1120   0.284   2.822   0.648  2.5945  0.9548  0.0350
   40ANI     H8 1121   0.168   2.615   0.692  0.0488  1.6194 -0.9731
   41ANI     C1 1122   1.643   2.838   0.732 -0.2971  0.4162 -0.3126
   41ANI     O1 1123   1.764   2.794   0.793 -0.3879  0.0091 -0.1813
   41ANI     C2 1124   1.871   2.734   0.732  0.1832  0.2290  0.6741
   41ANI     C3 1125   1.973   2.680   0.814 -0.1546  0.5824  0.1921
   41ANI     C4 1126   2.071   2.596   0.750 -0.1071  0.1154  0.3662
   41ANI     C5 1127   2.075   2.582   0.614  0.0163 -0.2538  0.2669
   41ANI     C6 1128   1.985   2.651   0.532 -0.2159 -0.5996  0.4797
   41ANI     C7 1129   1.879   2.723   0.592  0.0571  0.8329  0.6134
   41ANI     H1 1130   1.666   2.915   0.657  2.7607  0.3880  0.5391
   41ANI     H2 1131   1.594   2.758   0.675  0.6932 -0.8668  0.6128
   41ANI     H3 1132   1.583   2.885   0.810 -1.3246  0.0220 -0.8492
   41ANI     H4 1133   1.962   2.684   0.922 -1.1502 -0.0865  0.1218
   41ANI     H5 1134   2.138   2.536   0.811 -0.9663 -1.1214  0.1169
   41ANI     H6 1135   2.149   2.517   0.569 -0.5919  1.2826 -3.0921
   41ANI     H7 1136   1.983   2.625   0.426  1.8597  2.1825 -0.2819
   41ANI     H8 1137   1.802   2.757   0.524 -0.4398  0.7235  1.1199
   42ANI     C1 1138   3.025   3.144   2.408  0.1330  0.3207 -0.3001
   42ANI     O1 1139   2.991   3.015   2.363  0.1741  0.3822  0.0694
   42ANI     C2 1140   3.078   2.905   2.355  0.4615  0.0180  0.2261
   42ANI     C3 1141   3.185   2.883   2.447  0.0438 -0.1095  0.6976
   42ANI     C4 1142   3.262   2.767   2.439 -0.0448 -0.8281  0.5838
   42ANI     C5 1143   3.228   2.667   2.351  0.3990  0.4267  0.7808
   42ANI     C6 1144   3.120   2.688   2.266 -0.5563  0.7450 -0.1370
   42ANI     C7 1145   3.051   2.806   2.260  0.4341 -0.2537  0.1466
   42ANI     H1 1146   3.122   3.180   2.372  1.1186  0.5581  2.4711
   42ANI     H2 1147   2.940   3.209   2.386 -0.1974 -0.4438 -1.3301
   42ANI     H3 1148   3.037   3.139   2.517 -1.4182 -1.5151 -0.1849
   42ANI     H4 1149   3.217   2.951   2.525  3.5912  0.9421 -1.5780
   42ANI     H5 1150   3.348   2.748   2.503  0.7727 -1.3519 -0.6638
   42ANI     H6 1151   3.299   2.586   2.341 -2.0417 -1.6333 -0.3469
   42ANI     H7 1152   3.091   2.610   2.195 -2.1376  1.4337 -0.2650
   42ANI     H8 1153   2.973   2.828   2.188 -0.4117 -1.8955  0.5447
   43ANI     C1 1154   0.304   2.951   0.349 -0.0256  0.1082  0.1447
   43ANI     O1 1155   0.383   3.044   0.430 -0.4997 -0.0522  0.2415
   43ANI     C2 1156   0.373   3.182   0.424  0.2010 -0.3004 -0.2593
   43ANI     C3 1157   0.461   3.245   0.509 -0.0302 -0.0374 -0.2869
   43ANI     C4 1158   0.466   3.391   0.502 -0.1557 -0.1504  0.2240
   43ANI     C5 1159   0.386   3.455   0.409  0.0626 -0.7342  0.2767
   43ANI     C6 1160   0.305   3.385   0.314  0.5905  0.0249 -0.2577
   43ANI     C7 1161   0.299   3.249   0.332  0.0311  0.0585  0.2901
   43ANI     H1 1162   0.334   2.850   0.375 -1.3333  0.1529  1.9145
   43ANI     H2 1163   0.195   2.959   0.362  0.1213 -1.3299  2.4376
   43ANI     H3 1164   0.341   2.970   0.247 -0.5094  4.4360  0.6475
   43ANI     H4 1165   0.512   3.187   0.586 -1.4096 -0.8366  0.0376
   43ANI     H5 1166   0.514   3.451   0.579  1.7640  1.2474 -2.0004
   43ANI     H6 1167   0.387   3.562   0.392 -0.7255 -0.5229  1.5565
   43ANI     H7 1168   0.243   3.438   0.242 -1.3986 -2.3462 -0.3801
   43ANI     H8 1169   0.247   3.187   0.260 -0.8283  0.5177  0.5032
   44ANI     C1 1170   1.927   1.445   0.076 -0.4869 -0.2661  0.9890
   44ANI     O1 1171   1.944   1.576   0.034  0.1234 -0.2139  0.0426
   44ANI     C2 1172   1.878   1.687   0.085 -0.0389  0.1262 -0.3951
   44ANI     C3 1173   1.772   1.668   0.177  0.3663 -0.0050  0.3691
   44ANI     C4 1174   1.715   1.781   0.232  0.2801  0.8569 -0.8882
   44ANI     C5 1175   1.756   1.908   0.192 -0.1360 -0.0301  0.2420
   44ANI     C6 1176   1.846   1.923   0.084 -0.4306 -0.0391  0.0624
   44ANI     C7 1177   1.916   1.813   0.039 -0.0877 -0.1419  0.2839
   44ANI     H1 1178   2.005   1.380   0.032  0.7031  1.9917 -0.3427
   44ANI     H2 1179   1.926   1.443   0.186 -1.0839  1.1787  1.0184
   44ANI     H3 1180   1.826   1.417   0.044 -0.3141  1.3132 -1.0668
   44ANI     H4 1181   1.725   1.572   0.194 -1.4716  0.3928 -2.1378
   44ANI     H5 1182   1.649   1.761   0.316  0.2021 -1.8215 -1.5653
   44ANI     H6 1183   1.719   1.995   0.245  0.8326  0.5600 -0.0415
   44ANI     H7 1184   1.887   2.021   0.063  2.3093 -1.5806 -2.1921
   44ANI     H8 1185   2.002   1.813  -0.026  0.6241 -0.8550  1.2022
   45ANI     C1 1186   3.249   2.077   2.646  0.9163 -0.4786  0.3684
   45ANI     O1 1187   3.385   2.118   2.617 -0.1257 -0.3396  0.4972
   45ANI     C2 1188   3.415   2.251   2.608 -0.4082  0.3276 -0.1250
   45ANI     C3 1189   3.318   2.350   2.635 -0.1034  0.2658  0.0364
   45ANI     C4 1190   3.365   2.477   2.640 -0.2220  0.5222 -0.6657
   45ANI     C5 1191   3.497   2.513   2.603  0.2802  0.3021 -0.0483
   45ANI     C6 1192   3.586   2.415   2.567 -0.4067  0.2545  0.5364
   45ANI     C7 1193   3.542   2.283   2.562 -0.3090  0.0618  0.0386
   45ANI     H1 1194   3.205   2.114   2.740  3.2388  1.6571  0.6815
   45ANI     H2 1195   3.191   2.108   2.559  1.2582  1.9830  0.9740
   45ANI     H3 1196   3.244   1.967   2.646  0.2014 -0.4468  0.2521
   45ANI     H4 1197   3.212   2.334   2.650 -0.0197 -1.1918 -0.8693
   45ANI     H5 1198   3.304   2.562   2.670 -0.6096 -0.5899  1.7594
   45ANI     H6 1199   3.532   2.616   2.612  0.6437  0.3390 -1.7128
   45ANI     H7 1200   3.688   2.441   2.540 -0.7972 -0.9408 -2.1707
   45ANI     H8 1201   3.601   2.199   2.527 -1.1019 -1.0555  1.3382
   46ANI     C1 1202   0.373   0.830   1.185 -0.6123 -0.2943 -0.7032
   46ANI     O1 1203   0.376   0.717   1.095 -0.1410 -0.1551  0.1616
   46ANI     C2 1204   0.434   0.728   0.970 -0.1813 -0.2768  0.4695
   46ANI     C3 1205   0.488   0.843   0.920 -0.5644  0.3839  0.6224
   46ANI     C4 1206   0.561   0.847   0.794 -0.1497  0.3599 -0.1529
   46ANI     C5 1207   0.564   0.736   0.716 -1.1186 -0.1387  0.3626
   46ANI     C6 1208   0.499   0.617   0.761  0.3622  0.3354  0.1667
   46ANI     C7 1209   0.440   0.614   0.890 -0.0837  0.1397 -0.4568
   46ANI     H1 1210   0.316   0.814   1.277 -1.5052  1.9972 -0.8294
   46ANI     H2 1211   0.476   0.860   1.207 -0.0470 -0.2803 -3.2785
   46ANI     H3 1212   0.342   0.921   1.133 -0.9358 -0.9054 -1.5887
   46ANI     H4 1213   0.492   0.936   0.975 -0.5428  2.0923 -2.1718
   46ANI     H5 1214   0.614   0.937   0.765  0.8354 -0.3275 -0.5232
   46ANI     H6 1215   0.628   0.726   0.629 -0.1946  0.6072  0.9448
   46ANI     H7 1216   0.516   0.531   0.697 -2.0427 -0.5010  0.6006
   46ANI     H8 1217   0.401   0.521   0.930 -0.4553 -0.1939 -1.5963
   47ANI     C1 1218   1.902   0.034   2.520 -0.1909 -0.2950  0.5910
   47ANI     O1 1219   1.759   0.060   2.498 -0.0840 -1.0204 -0.1337
   47ANI     C2 1220   1.683   0.086   2.607 -0.1911  0.9485 -0.0558
   47ANI     C3 1221   1.554   0.140   2.590  0.6711 -0.1428 -0.8338
   47ANI     C4 1222   1.488   0.196   2.701 -0.1200 -0.0372  0.3759
   47ANI     C5 1223   1.530   0.179   2.830 -0.2493  0.4925 -0.8619
   47ANI     C6 1224   1.649   0.098   2.851 -0.1261  0.3707 -0.2316
   47ANI     C7 1225   1.724   0.057   2.742 -0.5376 -0.2625 -0.0169
   47ANI     H1 1226   1.917  -0.064   2.568  2.0862 -0.7990 -1.0042
   47ANI     H2 1227   1.956   0.037   2.424  0.5697  0.9696  1.0579
   47ANI     H3 1228   1.942   0.119   2.577  1.3263 -0.1531 -0.6345
   47ANI     H4 1229   1.520   0.149   2.487  1.4025  1.1146 -0.9737
   47ANI     H5 1230   1.394   0.249   2.688 -0.4349 -0.8646 -0.7362
   47ANI     H6 1231   1.479   0.221   2.916  1.5665 -2.1861  1.5764
   47ANI     H7 1232   1.679   0.086   2.955  0.1832  0.5369 -0.2998
   47ANI     H8 1233   1.825   0.020   2.759 -0.1035  0.4466 -0.9848
   48ANI     C1 1234   2.128   3.057   3.157 -0.1793  0.5602 -0.2212
   48ANI     O1 1235   2.016   3.075   3.065  0.5777 -0.2703 -0.2485
   48ANI     C2 1236   2.040   3.093   2.932 -0.2424 -0.4193  0.3610
   48ANI     C3 1237   1.923   3.094   2.849 -0.4864 -0.0166  0.5673
   48ANI     C4 1238   1.927   3.100   2.716  0.1195 -0.3830  0.7075
   48ANI     C5 1239   2.053   3.104   2.653 -0.0263  0.0340 -0.2551
   48ANI     C6 1240   2.171   3.111   2.731  0.4567  0.1007 -0.4542
   48ANI     C7 1241   2.164   3.097   2.872 -0.1531  0.0481  0.0916
   48ANI     H1 1242   2.097   2.983   3.232 -2.4747  1.2386 -0.4529
   48ANI     H2 1243   2.216   3.021   3.102 -0.7684 -1.5702  0.1868
   48ANI     H3 1244   2.155   3.152   3.205  2.6937 -0.3362  0.0250
   48ANI     H4 1245   1.824   3.086   2.893 -0.7300 -1.5618 -0.2154
   48ANI     H5 1246   1.834   3.107   2.661 -0.8130  1.0920  2.4364
   48ANI     H6 1247   2.066   3.111   2.545 -1.1057  0.1278 -0.3798
   48ANI     H7 1248   2.261   3.113   2.670  1.0668 -1.1681  0.3683
   48ANI     H8 1249   2.259   3.090   2.924  0.4809 -1.8276 -1.2769
   49ANI     C1 1250   3.154   2.726   1.317  0.4327 -0.9287 -0.3644
   49ANI     O1 1251   3.131   2.794   1.192  0.0958 -0.1938 -0.2989
   49ANI     C2 1252   3.020   2.760   1.114 -0.1374  0.1244  0.0044
   49ANI     C3 1253   2.993   2.832   0.998 -0.4508  0.3430 -0.2439
   49ANI     C4 1254   2.882   2.815   0.918 -0.4421 -0.1096  0.4894
   49ANI     C5 1255   2.787   2.720   0.961  0.7064 -0.1443 -0.0598
   49ANI     C6 1256   2.804   2.647   1.075  0.3071 -0.9955  1.0544
   49ANI     C7 1257   2.917   2.667   1.159 -0.1869 -0.0846  0.2498
   49ANI     H1 1258   3.174   2.618   1.311 -1.1150 -1.5913  4.3546
   49ANI     H2 1259   3.236   2.773   1.373 -0.9014 -0.2482  1.0250
   49ANI     H3 1260   3.064   2.721   1.379 -0.2455  0.0913 -1.2505
   49ANI     H4 1261   3.073   2.900   0.970 -1.7363  1.9208 -0.1490
   49ANI     H5 1262   2.875   2.879   0.830  1.7292 -0.8694 -0.2638
   49ANI     H6 1263   2.696   2.695   0.906  1.0372  0.7458 -1.0292
   49ANI     H7 1264   2.728   2.582   1.116  0.2975 -0.5884  1.7070
   49ANI     H8 1265   2.931   2.612   1.251  0.6899 -0.1590  0.0789
   50ANI     C1 1266   0.904   1.866   0.027  0.0422 -0.1754  0.0858
   50ANI     O1 1267   0.872   1.724   0.029 -0.2368  0.1325 -0.2794
   50ANI     C2 1268   0.868   1.646  -0.082  0.1038 -0.5625 -0.0541
   50ANI     C3 1269   0.871   1.698  -0.209  0.7844  0.3937  0.5332
   50ANI     C4 1270   0.865   1.612  -0.316 -0.2781  0.0542  0.5390
   50ANI     C5 1271   0.868   1.469  -0.302 -0.1636 -0.8069  0.3378
   50ANI     C6 1272   0.853   1.415  -0.167 -0.0872 -0.0473 -0.6389
   50ANI     C7 1273   0.853   1.505  -0.057  0.4744  0.8118  0.2620
   50ANI     H1 1274   1.010   1.891   0.014 -0.3897  0.3903 -2.5229
   50ANI     H2 1275   0.845   1.910  -0.054  1.1767 -0.3835 -0.8767
   50ANI     H3 1276   0.873   1.921   0.117 -3.4299 -0.6608 -0.7588
   50ANI     H4 1277   0.875   1.806  -0.224 -0.3032  0.3868  0.1143
   50ANI     H5 1278   0.884   1.657  -0.413  1.8012  0.3912  1.0892
   50ANI     H6 1279   0.862   1.416  -0.396  1.0152 -0.5612  0.1176
   50ANI     H7 1280   0.845   1.309  -0.147 -1.1255  0.3608  1.1821
   50ANI     H8 1281   0.844   1.474   0.047  1.7603 -1.6095 -0.2976
   51ANI     C1 1282   1.254   0.537   2.919  0.8270 -0.0920 -0.0294
   51ANI     O1 1283   1.391   0.491   2.918  0.1565 -0.4918  0.8029
   51ANI     C2 1284   1.495   0.569   2.890 -1.0736 -0.3485 -0.7308
   51ANI     C3 1285   1.626   0.513   2.902  0.1072 -0.0749  0.1201
   51ANI     C4 1286   1.742   0.583   2.879  0.0396  0.5133  0.2680
   51ANI     C5 1287   1.733   0.723   2.861 -0.9979  0.8600  0.7090
   51ANI     C6 1288   1.607   0.785   2.851  0.0952 -0.1143  0.5507
   51ANI     C7 1289   1.491   0.709   2.860  1.1444 -0.2333  0.3695
   51ANI     H1 1290   1.235   0.586   2.823 -0.0141  0.1616  0.2666
   51ANI     H2 1291   1.187   0.453   2.940  0.2087  0.0662 -1.3502
   51ANI     H3 1292   1.246   0.616   2.995  0.0759  0.8968 -1.1164
   51ANI     H4 1293   1.641   0.408   2.924 -0.2091 -0.3182 -0.7966
   51ANI     H5 1294   1.831   0.524   2.897 -2.2878 -3.2623 -0.1810
   51ANI     H6 1295   1.825   0.780   2.865 -0.3616 -0.1256  0.2518
   51ANI     H7 1296   1.595   0.891   2.830  1.6814 -0.0698 -0.2489
   51ANI     H8 1297   1.396   0.759   2.850  2.0027  1.3110 -0.1962
   52ANI     C1 1298   1.306   2.765   3.315 -0.5562 -0.1434  0.2518
   52ANI     O1 1299   1.279   2.622   3.331  0.2478  0.0835 -0.1051
   52ANI     C2 1300   1.363   2.516   3.283 -0.1952 -0.9604  0.3930
   52ANI     C3 1301   1.499   2.548   3.247  0.1526  0.4842  0.2985
   52ANI     C4 1302   1.580   2.452   3.189 -0.4021 -0.2537 -0.0855
   52ANI     C5 1303   1.530   2.323   3.173  0.0302 -0.4554  0.0648
   52ANI     C6 1304   1.396   2.289   3.206  0.0491 -0.1019  0.0407
   52ANI     C7 1305   1.310   2.390   3.260 -0.7187  0.6213 -0.4436
   52ANI     H1 1306   1.339   2.787   3.213  1.8602 -2.6662  0.4465
   52ANI     H2 1307   1.213   2.815   3.343 -1.1882 -0.6905 -0.8437
   52ANI     H3 1308   1.390   2.797   3.379  1.7053 -1.1566 -2.1268
   52ANI     H4 1309   1.535   2.646   3.274  0.6588  0.5456 -0.6036
   52ANI     H5 1310   1.682   2.474   3.160 -0.8393 -0.6043 -1.9459
   52ANI     H6 1311   1.600   2.253   3.128  0.2007  0.6384 -1.4415
   52ANI     H7 1312   1.361   2.187   3.188 -0.1991 -0.3360  1.7882
   52ANI     H8 1313   1.210   2.369   3.296 -0.9134  1.5998 -0.4026
   53ANI     C1 1314   0.086   1.034   3.299  0.0901  0.7625 -0.0266
   53ANI     O1 1315   0.042   0.916   3.367  0.4338 -0.0169  0.8491
   53ANI     C2 1316   0.011   0.919   3.498 -0.2660  0.5055  0.2119
   53ANI     C3 1317   0.029   1.028   3.576 -0.2106  0.2137  0.8430
   53ANI     C4 1318   0.008   1.018   3.714  0.4227  0.0186 -0.1909
   53ANI     C5 1319  -0.042   0.891   3.766 -0.0812 -0.3054 -0.0397
   53ANI     C6 1320  -0.071   0.778   3.687 -1.0188 -0.3239  0.3088
   53ANI     C7 1321  -0.046   0.795   3.546  0.8566 -0.5845  1.4461
   53ANI     H1 1322   0.011   1.114   3.308 -1.1085 -0.0172 -2.6442
   53ANI     H2 1323   0.178   1.063   3.350  0.6543  0.4829 -0.8909
   53ANI     H3 1324   0.091   1.013   3.192 -2.5696 -1.9754  0.3066
   53ANI     H4 1325   0.059   1.128   3.545  0.7249 -0.2729  0.1304
   53ANI     H5 1326   0.022   1.105   3.777  0.7687  0.4570 -0.8594
   53ANI     H6 1327  -0.041   0.877   3.874 -1.4325 -1.4985 -0.1623
   53ANI     H7 1328  -0.093   0.683   3.734  1.2045  0.2003  2.4700
   53ANI     H8 1329  -0.061   0.711   3.480  1.0658  0.1158  0.4964
   54ANI     C1 1330   3.176   3.087   2.805  0.6557 -0.2462 -0.1762
   54ANI     O1 1331   3.082   3.081   2.922 -0.3431 -0.4556 -0.2277
   54ANI     C2 1332   2.990   2.985   2.946  0.0427  0.8594 -0.3628
   54ANI     C3 1333   2.966   2.887   2.844  0.2960 -0.4710 -0.6468
   54ANI     C4 1334   2.880   2.781   2.866 -0.0520 -0.6798  0.0638
   54ANI     C5 1335   2.799   2.774   2.986  0.1892  0.5540 -0.2115
   54ANI     C6 1336   2.817   2.874   3.080  0.5038  0.1231 -0.0676
   54ANI     C7 1337   2.919   2.975   3.068 -0.5381 -0.0565  0.3811
   54ANI     H1 1338   3.241   3.176   2.805 -1.0573  1.0418  1.2300
   54ANI     H2 1339   3.246   3.003   2.813 -0.5581 -0.9789  3.4198
   54ANI     H3 1340   3.122   3.095   2.710  0.9023 -0.4691 -0.3368
   54ANI     H4 1341   3.013   2.894   2.746  3.2847 -0.3445  0.7521
   54ANI     H5 1342   2.857   2.713   2.785  0.8539 -0.0102 -0.7512
   54ANI     H6 1343   2.731   2.692   3.006  0.1553  0.4662 -0.6963
   54ANI     H7 1344   2.753   2.876   3.168  2.5882 -1.7071  1.5599
   54ANI     H8 1345   2.934   3.053   3.142 -0.0170 -0.8039  1.0790
   55ANI     C1 1346   0.155   1.178   2.630 -0.2049  0.3990 -0.7426
   55ANI     O1 1347   0.175   1.314   2.604 -0.0124  0.3623  0.1827
   55ANI     C2 1348   0.067   1.403   2.607  0.1919 -0.7799 -0.1608
   55ANI     C3 1349  -0.066   1.364   2.631  1.4053  0.1604  0.5365
   55ANI     C4 1350  -0.169   1.461   2.641 -0.1469  0.0650 -0.2047
   55ANI     C5 1351  -0.136   1.597   2.625 -0.4050  0.4145 -0.1015
   55ANI     C6 1352  -0.005   1.635   2.603  0.6589  0.2158  0.4534
   55ANI     C7 1353   0.092   1.535   2.593  0.1813 -0.1005  0.4082
   55ANI     H1 1354   0.251   1.125   2.631  0.0518  0.8266 -1.6374
   55ANI     H2 1355   0.107   1.166   2.728 -1.2858 -0.8335 -1.3981
   55ANI     H3 1356   0.081   1.139   2.559 -1.7044 -0.7888  1.4243
   55ANI     H4 1357  -0.094   1.261   2.647  2.5081 -0.5507 -1.8424
   55ANI     H5 1358  -0.270   1.435   2.671  0.5359  0.2967  2.4054
   55ANI     H6 1359  -0.216   1.670   2.615  1.3031  2.0969 -1.9346
   55ANI     H7 1360   0.022   1.741   2.603  2.6922 -0.2572 -1.8809
   55ANI     H8 1361   0.192   1.567   2.562 -0.3610  0.3896 -0.8747
   56ANI     C1 1362   0.901   2.341   3.386  0.4161  0.0175  0.5682
   56ANI     O1 1363   0.962   2.246   3.478 -0.5395 -0.0170 -0.1460
   56ANI     C2 1364   1.022   2.131   3.430  0.7011  0.3673 -0.4621
   56ANI     C3 1365   1.044   2.103   3.294 -0.6228 -0.0502 -0.2048
   56ANI     C4 1366   1.106   1.985   3.249  0.0952  0.1191 -0.2158
   56ANI     C5 1367   1.155   1.897   3.344 -0.8122 -0.2403  0.1602
   56ANI     C6 1368   1.121   1.927   3.480 -0.3911 -0.5971  0.2196
   56ANI     C7 1369   1.063   2.037   3.521  0.5800  0.0049 -0.2586
   56ANI     H1 1370   0.971   2.368   3.307 -1.0650  2.1747 -0.0759
   56ANI     H2 1371   0.811   2.302   3.337  1.0970 -0.6228 -0.1833
   56ANI     H3 1372   0.886   2.438   3.436  0.4295  0.1210  0.3721
   56ANI     H4 1373   1.008   2.180   3.226 -1.8197 -1.2659 -0.9647
   56ANI     H5 1374   1.111   1.961   3.143 -0.0784 -2.2480  0.2889
   56ANI     H6 1375   1.218   1.813   3.317 -1.6942 -0.8081 -0.1532
   56ANI     H7 1376   1.158   1.854   3.552  0.8252 -1.4862 -1.2698
   56ANI     H8 1377   1.056   2.051   3.629  2.5368 -0.8550 -0.0009
   57ANI     C1 1378   2.965   2.643   0.010  0.0355  0.4076  0.0674
   57ANI     O1 1379   3.024   2.546  -0.070 -0.3206 -0.2052 -0.4128
   57ANI     C2 1380   3.020   2.556  -0.207  0.5610  0.1763  0.2519
   57ANI     C3 1381   3.057   2.442  -0.277  0.1883  0.0137 -0.6445
   57ANI     C4 1382   3.051   2.443  -0.411  0.3079  0.6159  0.2571
   57ANI     C5 1383   3.009   2.558  -0.476 -0.1038 -0.4484 -0.1444
   57ANI     C6 1384   2.972   2.673  -0.409 -0.0573  0.0266 -0.6417
   57ANI     C7 1385   2.974   2.671  -0.271 -0.2734 -0.5545  0.0302
   57ANI     H1 1386   2.861   2.652  -0.023  0.8898  0.3856 -2.7730
   57ANI     H2 1387   2.956   2.608   0.113 -1.6269 -0.3049 -0.3081
   57ANI     H3 1388   3.021   2.738   0.009  2.7865 -1.1623  0.0668
   57ANI     H4 1389   3.079   2.352  -0.220 -0.4183 -1.3089 -2.4485
   57ANI     H5 1390   3.094   2.355  -0.458 -1.5363 -0.7676  1.0933
   57ANI     H6 1391   2.991   2.562  -0.583 -0.8862 -1.6533 -0.0693
   57ANI     H7 1392   2.946   2.759  -0.469  0.0666  0.8798  0.5224
   57ANI     H8 1393   2.947   2.763  -0.219 -2.2657  0.6440 -3.0292
   58ANI     C1 1394   0.488   2.050   0.706 -0.3213 -0.1379 -0.2259
   58ANI     O1 1395   0.399   1.969   0.785  0.1116 -0.1361 -0.1634
   58ANI     C2 1396   0.443   1.884   0.887  0.7650  0.9702 -0.1669
   58ANI     C3 1397   0.340   1.826   0.964 -0.6148  0.1688 -0.0948
   58ANI     C4 1398   0.367   1.765   1.087 -0.7579 -0.0502  0.5602
   58ANI     C5 1399   0.502   1.743   1.126  0.8039  0.8307 -0.7053
   58ANI     C6 1400   0.603   1.780   1.037 -0.1741 -0.4752 -0.6689
   58ANI     C7 1401   0.574   1.857   0.916  0.5968 -0.3017 -0.3534
   58ANI     H1 1402   0.557   1.982   0.655  0.2172 -0.1583  0.5204
   58ANI     H2 1403   0.435   2.103   0.626 -1.2417  0.2041  0.5950
   58ANI     H3 1404   0.530   2.128   0.771 -2.0618  0.5567  0.0976
   58ANI     H4 1405   0.238   1.854   0.941 -0.7859  0.7601  1.3415
   58ANI     H5 1406   0.286   1.709   1.133 -0.4491 -0.0537  1.1003
   58ANI     H6 1407   0.525   1.703   1.224 -1.2874  2.7658  0.6151
   58ANI     H7 1408   0.707   1.777   1.068 -0.7189  0.0839  1.2741
   58ANI     H8 1409   0.660   1.884   0.856  0.5498  0.4292 -0.1000
   59ANI     C1 1410   1.248   2.896   1.198  0.4502  0.6495  0.5809
   59ANI     O1 1411   1.383   2.860   1.171 -0.1226  0.3135  0.2835
   59ANI     C2 1412   1.469   2.945   1.102  0.1756  0.5715  0.0406
   59ANI     C3 1413   1.601   2.913   1.116 -0.8219 -0.3891 -0.6477
   59ANI     C4 1414   1.700   2.993   1.049  0.3896 -0.2072 -0.4201
   59ANI     C5 1415   1.658   3.108   0.986  0.0264 -0.3903 -0.1984
   59ANI     C6 1416   1.519   3.141   0.973  0.3700  0.2187  0.1418
   59ANI     C7 1417   1.420   3.057   1.029  0.3647  0.0877  1.1702
   59ANI     H1 1418   1.190   2.901   1.106 -0.6451 -2.3643  1.0343
   59ANI     H2 1419   1.204   2.817   1.261  1.6477 -1.7552 -1.5242
   59ANI     H3 1420   1.234   2.997   1.240  0.1001  0.4198  1.0260
   59ANI     H4 1421   1.636   2.828   1.174  0.4093 -0.0449 -0.8867
   59ANI     H5 1422   1.804   2.962   1.052  0.1433 -1.1453 -0.9978
   59ANI     H6 1423   1.738   3.160   0.935  1.1176 -0.5913  1.2873
   59ANI     H7 1424   1.483   3.227   0.918  1.5114  0.1154 -0.7869
   59ANI     H8 1425   1.315   3.077   1.012  0.2144 -0.5476  1.3421
   60ANI     C1 1426   3.224   0.431   0.485 -0.5269 -1.0256  0.7833
   60ANI     O1 1427   3.082   0.451   0.495 -0.4907  0.5406  0.0199
   60ANI     C2 1428   2.992   0.384   0.418  0.5537 -0.8108  0.1320
   60ANI     C3 1429   2.858   0.424   0.427 -0.4657  0.5244  1.5126
   60ANI     C4 1430   2.757   0.355   0.372 -0.3011  0.4777 -0.1055
   60ANI     C5 1431   2.787   0.246   0.285  0.4396  0.4467 -0.1123
   60ANI     C6 1432   2.920   0.208   0.268  0.2299 -0.0652  0.0938
   60ANI     C7 1433   3.025   0.278   0.337 -0.3439 -0.3002 -0.1903
   60ANI     H1 1434   3.260   0.358   0.559 -1.5604 -1.4901  0.8261
   60ANI     H2 1435   3.242   0.391   0.384 -3.0933  2.1584 -1.0061
   60ANI     H3 1436   3.280   0.523   0.506 -0.5262 -1.0357  0.8260
   60ANI     H4 1437   2.841   0.503   0.500 -0.7764  3.2823 -1.4265
   60ANI     H5 1438   2.655   0.392   0.376  0.8486  3.6877  1.7656
   60ANI     H6 1439   2.706   0.195   0.235 -0.6231  0.6095  1.4046
   60ANI     H7 1440   2.948   0.121   0.210 -0.4423 -0.2836  0.0978
   60ANI     H8 1441   3.129   0.255   0.319 -0.2338 -1.1038  1.3863
   61ANI     C1 1442   2.004   1.121   3.707 -0.1178  0.0989  0.9117
   61ANI     O1 1443   1.999   1.053   3.833 -0.1999  0.1821  0.8313
   61ANI     C2 1444   2.100   1.059   3.932 -0.4309 -0.0670  0.0102
   61ANI     C3 1445   2.072   0.985   4.049 -0.4299 -0.0173 -0.1633
   61ANI     C4 1446   2.163   0.990   4.160  0.4539  0.1102 -0.3419
   61ANI     C5 1447   2.286   1.060   4.143 -0.7870 -0.1815 -0.4390
   61ANI     C6 1448   2.319   1.121   4.020  0.1100  0.1621  0.0554
   61ANI     C7 1449   2.221   1.132   3.919 -0.7036  0.2088  0.2773
   61ANI     H1 1450   1.971   1.225   3.719  1.0723  0.6116 -0.2065
   61ANI     H2 1451   2.103   1.126   3.661  0.8571 -0.6852  2.8558
   61ANI     H3 1452   1.920   1.080   3.649  0.3383 -0.0620  0.3635
   61ANI     H4 1453   1.978   0.932   4.051  0.2576 -1.2941 -1.0388
   61ANI     H5 1454   2.137   0.948   4.257 -0.9529  2.2233  0.2190
   61ANI     H6 1455   2.356   1.058   4.226 -2.1449 -0.0877  0.7180
   61ANI     H7 1456   2.410   1.179   4.011 -0.7669  1.5732 -0.0414
   61ANI     H8 1457   2.245   1.189   3.830  0.3760  0.2411  0.5841
   62ANI     C1 1458   1.755   0.263   0.458 -0.8612  0.7957 -0.3311
   62ANI     O1 1459   1.751   0.224   0.597 -0.1926  0.5235  0.3284
   62ANI     C2 1460   1.836   0.145   0.655  0.1504  0.6650  0.2651
   62ANI     C3 1461   1.936   0.074   0.594  0.0013  0.0333 -0.2767
   62ANI     C4 1462   2.022  -0.015   0.667 -0.0121  0.0919 -0.1343
   62ANI     C5 1463   2.011  -0.022   0.806 -0.4241  0.2787  0.2665
   62ANI     C6 1464   1.918   0.053   0.871  0.6870 -0.1511  0.1981
   62ANI     C7 1465   1.826   0.130   0.795  0.6297 -0.0632  0.1546
   62ANI     H1 1466   1.855   0.305   0.444 -0.0003 -1.6088 -1.5965
   62ANI     H2 1467   1.743   0.174   0.396  0.8315  0.1431  0.2516
   62ANI     H3 1468   1.675   0.334   0.430  0.5153  3.3568  1.9280
   62ANI     H4 1469   1.954   0.098   0.490 -0.4968  1.0339 -0.1354
   62ANI     H5 1470   2.102  -0.070   0.619 -0.7627 -1.1710  0.0216
   62ANI     H6 1471   2.074  -0.086   0.867  0.1732 -0.5401 -1.1895
   62ANI     H7 1472   1.902   0.041   0.977 -1.7238  0.5638 -0.0519
   62ANI     H8 1473   1.735   0.165   0.843 -0.2741  0.2914 -1.7554
   63ANI     C1 1474   1.022   2.944   0.462 -0.1214 -0.0634 -0.7407
   63ANI     O1 1475   1.009   2.882   0.330 -0.2789  0.2307 -0.4234
   63ANI     C2 1476   0.896   2.809   0.298  0.4362  0.1297 -0.3799
   63ANI     C3 1477   0.769   2.854   0.339  0.0193  0.2416 -0.0598
   63ANI     C4 1478   0.656   2.772   0.312 -0.0017 -0.0030 -0.0451
   63ANI     C5 1479   0.661   2.648   0.245  0.1429  1.0453 -0.4578
   63ANI     C6 1480   0.789   2.603   0.200 -0.0605 -0.0869 -0.2417
   63ANI     C7 1481   0.900   2.685   0.221  0.5856 -0.2290 -0.5401
   63ANI     H1 1482   1.009   2.870   0.542 -2.4971 -1.2936 -2.1783
   63ANI     H2 1483   1.115   3.000   0.473  0.0623 -0.1297 -1.8706
   63ANI     H3 1484   0.952   3.027   0.480  1.0306  0.9092 -0.6727
   63ANI     H4 1485   0.761   2.946   0.394  3.1797  0.9511 -0.7136
   63ANI     H5 1486   0.564   2.819   0.344  1.0847  2.5188 -0.4839
   63ANI     H6 1487   0.572   2.594   0.215 -1.7011  4.0256 -0.5395
   63ANI     H7 1488   0.794   2.517   0.134  0.4992  1.1201 -1.8276
   63ANI     H8 1489   0.995   2.649   0.185  0.5091  0.8338 -1.8416
   64ANI     C1 1490   2.648   2.851   3.751 -0.1581  0.4189  0.3452
   64ANI     O1 1491   2.599   2.977   3.795 -0.1517  0.1945  0.2493
   64ANI     C2 1492   2.486   2.989   3.867  0.3887  0.2911  0.4787
   64ANI     C3 1493   2.385   2.896   3.855 -0.3375  0.1034  0.8571
   64ANI     C4 1494   2.276   2.906   3.941 -0.3110  0.1392 -0.5677
   64ANI     C5 1495   2.263   3.019   4.030  0.6197 -0.2171  0.7897
   64ANI     C6 1496   2.364   3.110   4.030  0.7687  0.1558  0.6869
   64ANI     C7 1497   2.471   3.102   3.949 -0.1353 -0.6917  0.6752
   64ANI     H1 1498   2.573   2.806   3.685  2.3951 -2.4324 -0.6908
   64ANI     H2 1499   2.745   2.881   3.710 -0.7958 -0.2120 -1.6496
   64ANI     H3 1500   2.659   2.786   3.839 -0.6080 -0.9094 -0.5803
   64ANI     H4 1501   2.397   2.802   3.802  3.1253  0.7726  0.3414
   64ANI     H5 1502   2.197   2.834   3.924 -1.4803  1.2569 -0.0060
   64ANI     H6 1503   2.172   3.028   4.089  1.9587  1.1916  2.7128
   64ANI     H7 1504   2.354   3.194   4.098 -0.6944  2.4027 -2.2013
   64ANI     H8 1505   2.551   3.175   3.940 -1.2048  0.2786 -1.1357
   65ANI     C1 1506   1.581   0.988   0.892 -0.0606 -0.8096  0.4583
   65ANI     O1 1507   1.671   1.094   0.844  0.0932 -0.6220 -0.3969
   65ANI     C2 1508   1.728   1.185   0.928  0.1642 -0.0223  0.4001
   65ANI     C3 1509   1.703   1.177   1.070 -0.3957 -0.2819  0.7068
   65ANI     C4 1510   1.760   1.270   1.154  0.4277  0.8113 -0.3060
   65ANI     C5 1511   1.841   1.370   1.102  0.4984  0.3581  0.3656
   65ANI     C6 1512   1.864   1.386   0.967  0.1250 -0.4200 -1.0211
   65ANI     C7 1513   1.814   1.285   0.882  0.5729  0.2963  0.4529
   65ANI     H1 1514   1.498   1.028   0.951  1.0707  2.1032  0.1965
   65ANI     H2 1515   1.543   0.934   0.804  1.1964 -2.0010  0.6307
   65ANI     H3 1516   1.637   0.914   0.950 -0.0913  0.1270  1.6960
   65ANI     H4 1517   1.648   1.091   1.108 -0.2258 -0.5119  0.4380
   65ANI     H5 1518   1.743   1.278   1.261  0.0431  1.1479 -0.3887
   65ANI     H6 1519   1.888   1.440   1.171  2.8713 -0.2433 -0.5788
   65ANI     H7 1520   1.911   1.477   0.929  1.5053 -0.1639  1.2488
   65ANI     H8 1521   1.827   1.304   0.776 -0.3917 -0.9703  0.0891
   66ANI     C1 1522   2.054   0.711   2.227  0.0198 -0.9371 -0.2236
   66ANI     O1 1523   2.094   0.574   2.196  0.3892 -0.2636 -0.8670
   66ANI     C2 1524   2.002   0.468   2.212 -0.6262 -0.0077 -0.2963
   66ANI     C3 1525   2.052   0.340   2.217 -0.6554  0.2915  0.5010
   66ANI     C4 1526   1.967   0.231   2.216  0.6853 -0.3436 -0.2312
   66ANI     C5 1527   1.825   0.250   2.237  0.0628 -0.1253 -0.4270
   66ANI     C6 1528   1.775   0.381   2.239  0.5542 -0.8601 -0.2132
   66ANI     C7 1529   1.860   0.491   2.230  0.0382 -0.1394  0.0933
   66ANI     H1 1530   2.139   0.776   2.203 -0.3465 -0.9742 -1.6415
   66ANI     H2 1531   1.968   0.741   2.167 -0.2968 -1.5271 -0.0725
   66ANI     H3 1532   2.036   0.728   2.334  0.4706  2.6534 -0.6522
   66ANI     H4 1533   2.160   0.330   2.204 -0.5470  0.7185  1.0358
   66ANI     H5 1534   2.013   0.133   2.215  0.8659 -0.2531 -1.0128
   66ANI     H6 1535   1.755   0.168   2.246  1.2309 -1.3208 -2.0021
   66ANI     H7 1536   1.673   0.394   2.276  0.1869 -0.7064 -1.2555
   66ANI     H8 1537   1.825   0.590   2.257  0.6946  0.0098  0.3928
   67ANI     C1 1538   3.138   1.107   1.508 -0.4067  0.1018 -0.2445
   67ANI     O1 1539   3.043   1.129   1.396  0.2408 -0.2385 -0.3418
   67ANI     C2 1540   2.975   1.251   1.372  0.5015  0.2177 -0.6412
   67ANI     C3 1541   2.896   1.276   1.260  0.6199 -0.3699 -0.3812
   67ANI     C4 1542   2.865   1.408   1.215 -0.2753  0.2354 -0.4472
   67ANI     C5 1543   2.904   1.518   1.290 -0.1857  0.4501  0.6963
   67ANI     C6 1544   2.974   1.494   1.412 -0.0472 -0.5344  0.1194
   67ANI     C7 1545   3.003   1.366   1.451 -0.2423 -0.9554 -0.3430
   67ANI     H1 1546   3.090   1.106   1.606 -0.8433 -0.3951 -0.4602
   67ANI     H2 1547   3.190   1.011   1.494  1.1480  0.3949  3.0413
   67ANI     H3 1548   3.211   1.189   1.501 -1.0055  0.5396 -1.5574
   67ANI     H4 1549   2.872   1.190   1.199 -0.7032  0.5109 -1.1248
   67ANI     H5 1550   2.818   1.419   1.117 -1.7667 -1.9844  0.0061
   67ANI     H6 1551   2.888   1.620   1.258  0.8213  0.3793 -0.0458
   67ANI     H7 1552   3.019   1.577   1.466 -0.4491  0.6646 -1.3773
   67ANI     H8 1553   3.073   1.349   1.532  1.5563  1.6335 -1.2928
   68ANI     C1 1554   2.226   2.694   2.552 -0.6532 -0.1367 -0.3614
   68ANI     O1 1555   2.152   2.631   2.451 -0.6912  0.0033 -0.3837
   68ANI     C2 1556   2.020   2.656   2.446 -0.1102 -0.4805  0.0881
   68ANI     C3 1557   1.962   2.766   2.511 -0.3436 -0.0358  0.1761
   68ANI     C4 1558   1.830   2.804   2.501 -0.1554 -0.1922 -0.0828
   68ANI     C5 1559   1.750   2.727   2.416  0.4506 -0.6456  0.0992
   68ANI     C6 1560   1.807   2.619   2.342 -0.1096  0.4688 -0.4711
   68ANI     C7 1561   1.940   2.584   2.359  0.5661 -0.0333  0.0220
   68ANI     H1 1562   2.326   2.649   2.556 -0.1293  0.8712 -1.8710
   68ANI     H2 1563   2.237   2.801   2.534 -0.9095  0.0911  0.7814
   68ANI     H3 1564   2.183   2.679   2.652 -1.3192 -0.6956 -0.7266
   68ANI     H4 1565   2.024   2.823   2.580  1.2195 -0.9217 -0.4726
   68ANI     H5 1566   1.785   2.883   2.561  0.9880  0.4026  0.0062
   68ANI     H6 1567   1.646   2.756   2.410  0.6675  0.2372  0.5066
   68ANI     H7 1568   1.747   2.570   2.265 -1.1478 -2.0647  1.8782
   68ANI     H8 1569   1.985   2.506   2.299 -0.2835 -1.3891  1.1181
   69ANI     C1 1570   1.054   2.042   2.763 -0.0146  0.2783 -0.0475
   69ANI     O1 1571   1.096   2.112   2.646 -0.3493  0.4727  0.3088
   69ANI     C2 1572   1.097   2.049   2.521  0.3858 -0.8381  0.8660
   69ANI     C3 1573   1.204   2.076   2.434 -0.3949  1.2655 -0.5274
   69ANI     C4 1574   1.205   2.029   2.296 -0.1850  0.0422  0.0735
   69ANI     C5 1575   1.096   1.958   2.250  0.8120 -0.0435 -0.2800
   69ANI     C6 1576   0.987   1.934   2.334 -0.2595 -0.2529  0.0425
   69ANI     C7 1577   0.994   1.968   2.472  0.0323 -0.2237  0.1156
   69ANI     H1 1578   0.947   2.016   2.762  0.6865 -2.8019 -1.2807
   69ANI     H2 1579   1.118   1.957   2.789 -1.9875 -0.4251  2.7866
   69ANI     H3 1580   1.057   2.110   2.849 -1.3847 -0.1690  0.3711
   69ANI     H4 1581   1.287   2.137   2.471  1.2072 -0.5390 -1.0443
   69ANI     H5 1582   1.292   2.046   2.234 -0.7197  2.2288 -0.0986
   69ANI     H6 1583   1.101   1.911   2.152 -2.6473 -3.5255  1.0953
   69ANI     H7 1584   0.910   1.869   2.293 -1.1738  0.8171  0.0626
   69ANI     H8 1585   0.916   1.930   2.537 -1.3240  1.9964 -0.1319
   70ANI     C1 1586   2.264   0.732   2.787 -0.5001  1.0195 -0.4496
   70ANI     O1 1587   2.137   0.680   2.738 -0.4183  0.6120 -0.5052
   70ANI     C2 1588   2.036   0.760   2.677 -0.4508  0.3961  1.0700
   70ANI     C3 1589   2.019   0.898   2.701 -0.0137 -0.1945 -0.5639
   70ANI     C4 1590   1.911   0.974   2.649 -0.0924 -0.2808 -0.4503
   70ANI     C5 1591   1.823   0.914   2.557  0.1491 -0.2927  0.7773
   70ANI     C6 1592   1.848   0.778   2.527  0.3795 -0.3800  0.4213
   70ANI     C7 1593   1.950   0.700   2.589 -0.4284 -0.0058  0.0314
   70ANI     H1 1594   2.335   0.765   2.710  0.4403 -0.8431 -0.4059
   70ANI     H2 1595   2.251   0.806   2.866 -1.6081 -0.5948  0.9075
   70ANI     H3 1596   2.318   0.656   2.845  0.0674  1.5145 -0.3236
   70ANI     H4 1597   2.081   0.948   2.774 -1.0420  1.5872 -0.8852
   70ANI     H5 1598   1.902   1.079   2.674  0.3037 -0.8674  2.3533
   70ANI     H6 1599   1.749   0.975   2.506 -0.8796 -0.7485  1.7109
   70ANI     H7 1600   1.788   0.732   2.449  1.1808 -0.0317 -0.4081
   70ANI     H8 1601   1.967   0.595   2.564  0.1727  0.3344 -1.0264
   71ANI     C1 1602   0.780   0.574   2.706  0.0843 -0.2643 -0.6896
   71ANI     O1 1603   0.731   0.697   2.749  0.3008 -0.0476 -0.3336
   71ANI     C2 1604   0.689   0.716   2.882  0.3336  0.3841 -0.1004
   71ANI     C3 1605   0.684   0.849   2.927 -0.0305 -0.0837  0.0293
   71ANI     C4 1606   0.640   0.864   3.062 -0.3956  0.0611 -0.2109
   71ANI     C5 1607   0.610   0.765   3.151  0.2666  0.1093  0.4955
   71ANI     C6 1608   0.633   0.637   3.107 -0.2331 -0.2936 -0.1522
   71ANI     C7 1609   0.670   0.606   2.975  0.2500 -0.2988  0.1761
   71ANI     H1 1610   0.879   0.557   2.751  0.0378  1.2817  0.0331
   71ANI     H2 1611   0.721   0.488   2.739 -1.1719  0.4214 -1.1133
   71ANI     H3 1612   0.790   0.562   2.597 -3.0166  3.7493 -1.5468
   71ANI     H4 1613   0.706   0.930   2.858 -0.5498  0.9495  1.0608
   71ANI     H5 1614   0.632   0.963   3.105 -0.6304 -0.1439  0.2258
   71ANI     H6 1615   0.568   0.782   3.250  0.0833  0.5684  0.3366
   71ANI     H7 1616   0.627   0.564   3.186  1.3244  0.8970  1.1004
   71ANI     H8 1617   0.677   0.501   2.948 -3.3237 -1.2529  2.5195
   72ANI     C1 1618   0.980   2.416   2.577 -0.2814  0.2055  0.3748
   72ANI     O1 1619   0.853   2.495   2.582 -0.0131 -0.1121  0.4131
   72ANI     C2 1620   0.857   2.626   2.604 -0.4200 -0.0075  0.5019
   72ANI     C3 1621   0.968   2.708   2.561  0.5783  0.4789 -0.2215
   72ANI     C4 1622   0.975   2.843   2.597 -0.4126  0.7481  0.5881
   72ANI     C5 1623   0.876   2.894   2.679  0.8380  0.5377 -0.7031
   72ANI     C6 1624   0.763   2.821   2.715  0.2737 -0.0924  0.2408
   72ANI     C7 1625   0.753   2.685   2.685 -0.1615 -0.1022 -0.3930
   72ANI     H1 1626   1.034   2.424   2.672  0.4330  1.0109 -0.0956
   72ANI     H2 1627   0.956   2.310   2.565 -1.0944  0.3294  0.8172
   72ANI     H3 1628   1.045   2.453   2.497  0.3944 -0.4644  0.6143
   72ANI     H4 1629   1.052   2.668   2.506 -0.3482  0.1130 -1.3920
   72ANI     H5 1630   1.054   2.906   2.557 -2.6093  3.1902 -0.0476
   72ANI     H6 1631   0.885   3.000   2.701 -1.6068  1.2369 -2.8037
   72ANI     H7 1632   0.692   2.869   2.782  1.2066 -0.3834  1.4587
   72ANI     H8 1633   0.672   2.628   2.730  0.3837 -0.1444  0.5538
   73ANI     C1 1634   2.085   2.056   1.259  0.0530 -0.4776 -0.1447
   73ANI     O1 1635   1.982   2.092   1.175  0.7755 -0.1721 -0.0033
   73ANI     C2 1636   1.999   2.140   1.050 -0.4261  0.0704 -0.2108
   73ANI     C3 1637   2.128   2.181   1.006 -0.3395 -0.3041  0.7979
   73ANI     C4 1638   2.144   2.234   0.882 -0.4610  0.1418  1.4641
   73ANI     C5 1639   2.029   2.252   0.799 -0.2560 -0.4433  0.9812
   73ANI     C6 1640   1.905   2.216   0.850  0.9212 -0.3163  0.2957
   73ANI     C7 1641   1.887   2.163   0.972 -0.2300 -0.1756 -0.5771
   73ANI     H1 1642   2.146   2.144   1.285  1.2935 -1.4240  0.2258
   73ANI     H2 1643   2.041   2.007   1.347 -2.9041  0.9011 -0.7864
   73ANI     H3 1644   2.153   1.986   1.210 -0.5663 -1.6337  0.6281
   73ANI     H4 1645   2.219   2.168   1.064  0.6786 -2.2336 -1.1549
   73ANI     H5 1646   2.239   2.279   0.857 -1.0575  1.4346  1.4945
   73ANI     H6 1647   2.038   2.308   0.706 -2.1217 -1.1582  0.3318
   73ANI     H7 1648   1.816   2.228   0.790  1.8118  0.1627 -0.9427
   73ANI     H8 1649   1.790   2.133   1.011 -0.4946 -0.4548 -1.4365
   74ANI     C1 1650   2.848   3.019   0.220 -0.0648  0.1655  0.3762
   74ANI     O1 1651   2.900   2.908   0.290 -0.1754  0.5447 -0.2047
   74ANI     C2 1652   3.026   2.887   0.317 -0.8363  0.4020 -0.6806
   74ANI     C3 1653   3.129   2.974   0.270 -0.0560  0.1299  0.4829
   74ANI     C4 1654   3.265   2.937   0.289 -0.3141  0.6116  0.3165
   74ANI     C5 1655   3.307   2.820   0.357 -0.5364  0.0695  0.3974
   74ANI     C6 1656   3.202   2.737   0.414 -0.1560  0.1638  0.2913
   74ANI     C7 1657   3.067   2.764   0.390  0.4377 -0.7963 -0.7568
   74ANI     H1 1658   2.887   3.117   0.251 -2.2896  1.1497  0.2043
   74ANI     H2 1659   2.879   3.014   0.115 -1.2443 -2.1015  0.1106
   74ANI     H3 1660   2.738   3.019   0.219 -0.1410  1.8957  2.5269
   74ANI     H4 1661   3.101   3.068   0.223 -3.8103 -0.6215  1.0611
   74ANI     H5 1662   3.343   2.999   0.245 -0.4942 -0.1259 -1.0810
   74ANI     H6 1663   3.411   2.797   0.377 -0.4978 -1.1952 -1.2005
   74ANI     H7 1664   3.227   2.649   0.472  0.3230  1.2147  1.6907
   74ANI     H8 1665   2.998   2.691   0.432 -0.6593 -0.4478 -1.9368
   75ANI     C1 1666   1.788   0.954   3.174  0.2270 -0.5405  0.3891
   75ANI     O1 1667   1.935   0.950   3.167 -0.3193  0.1264 -0.9748
   75ANI     C2 1668   1.996   1.032   3.076  0.1308  0.4679 -0.3636
   75ANI     C3 1669   2.128   1.003   3.041 -0.1475 -0.3596 -0.6032
   75ANI     C4 1670   2.208   1.101   2.971 -0.0050 -0.2155 -0.5806
   75ANI     C5 1671   2.149   1.218   2.917 -0.2268  0.3098 -0.6364
   75ANI     C6 1672   2.014   1.245   2.942  0.6514 -0.5730 -0.0944
   75ANI     C7 1673   1.941   1.147   3.020 -0.0791 -0.0601 -1.0948
   75ANI     H1 1674   1.758   0.866   3.232  0.0781 -1.0670 -0.4894
   75ANI     H2 1675   1.745   1.037   3.231 -1.7558 -2.6558  2.0874
   75ANI     H3 1676   1.742   0.963   3.075 -0.9024  0.9830  1.0264
   75ANI     H4 1677   2.173   0.916   3.087 -0.8340  0.4811  1.6968
   75ANI     H5 1678   2.311   1.080   2.942  0.1130  0.4572 -0.6683
   75ANI     H6 1679   2.208   1.290   2.860 -1.0932  2.0383  0.5796
   75ANI     H7 1680   1.977   1.335   2.894  1.2083 -1.2977 -1.9243
   75ANI     H8 1681   1.838   1.171   3.045  0.6112  2.0582 -0.1692
   76ANI     C1 1682   2.427   2.523   3.103  0.0822  0.4438 -0.3265
   76ANI     O1 1683   2.488   2.502   2.975  0.3476  0.9694  0.3103
   76ANI     C2 1684   2.494   2.606   2.886 -0.6661 -0.3018  0.4877
   76ANI     C3 1685   2.560   2.590   2.768 -0.5312  0.5085  0.0796
   76ANI     C4 1686   2.570   2.687   2.666 -0.1588 -0.5805  0.1787
   76ANI     C5 1687   2.516   2.812   2.688 -1.0507  0.3546  0.6835
   76ANI     C6 1688   2.441   2.833   2.807 -0.1034 -0.2021 -0.1684
   76ANI     C7 1689   2.431   2.734   2.907 -0.6090 -0.0417  0.2542
   76ANI     H1 1690   2.488   2.598   3.155  0.4726 -0.5363  0.6443
   76ANI     H2 1691   2.323   2.559   3.097 -0.1540 -0.3940 -1.4232
   76ANI     H3 1692   2.435   2.433   3.165 -0.4975 -0.5735 -1.6923
   76ANI     H4 1693   2.619   2.500   2.752 -0.5180  0.4803  0.2800
   76ANI     H5 1694   2.624   2.664   2.575 -2.7331  2.8507 -2.3116
   76ANI     H6 1695   2.535   2.900   2.628  1.5808 -0.1673  0.6479
   76ANI     H7 1696   2.384   2.924   2.822  0.7729  0.2251  0.5623
   76ANI     H8 1697   2.376   2.747   2.999 -0.4504 -0.9289  0.4751
   77ANI     C1 1698   0.614   3.127   1.265  0.1773  0.0444 -0.3103
   77ANI     O1 1699   0.593   3.054   1.390  0.5178 -0.4040 -0.1239
   77ANI     C2 1700   0.597   2.917   1.405 -0.6453 -0.2453 -0.4828
   77ANI     C3 1701   0.599   2.855   1.533 -0.3540 -0.1964 -0.5421
   77ANI     C4 1702   0.591   2.716   1.544 -0.1168  0.4508  0.0616
   77ANI     C5 1703   0.593   2.634   1.427 -0.3705 -0.0003  0.7527
   77ANI     C6 1704   0.589   2.692   1.300  0.0678 -0.0766  0.3517
   77ANI     C7 1705   0.586   2.833   1.288  0.3610 -0.0120  1.0182
   77ANI     H1 1706   0.633   3.232   1.287 -1.6454  0.5604 -1.1160
   77ANI     H2 1707   0.702   3.082   1.219  0.1147  1.0461 -1.4220
   77ANI     H3 1708   0.532   3.124   1.192 -0.2072  2.5242 -0.0100
   77ANI     H4 1709   0.600   2.920   1.620  0.2385 -2.8651  1.4921
   77ANI     H5 1710   0.586   2.673   1.644 -0.8381  1.9489  0.6855
   77ANI     H6 1711   0.599   2.526   1.443 -1.3898 -0.4632 -1.7165
   77ANI     H7 1712   0.593   2.633   1.209  0.3034 -1.7055  1.4110
   77ANI     H8 1713   0.595   2.876   1.189  0.4797 -0.5679  0.7817
   78ANI     C1 1714   2.746   0.951   0.892  0.4762  0.5702 -0.1200
   78ANI     O1 1715   2.890   0.982   0.918  0.4807 -0.5122  0.0303
   78ANI     C2 1716   2.930   1.114   0.893 -0.3519 -0.4768  0.2791
   78ANI     C3 1717   2.840   1.220   0.886  0.3244  0.6116 -0.2216
   78ANI     C4 1718   2.875   1.354   0.870  0.6863  0.0194 -0.0918
   78ANI     C5 1719   3.009   1.382   0.845 -0.1748  0.2303 -0.3206
   78ANI     C6 1720   3.097   1.275   0.836 -0.4741  0.2545 -0.1657
   78ANI     C7 1721   3.062   1.141   0.859 -1.0713  0.0583  0.3782
   78ANI     H1 1722   2.722   0.965   0.786  0.6762 -0.4398 -0.3079
   78ANI     H2 1723   2.733   0.848   0.926  1.1986  0.1154 -1.1819
   78ANI     H3 1724   2.674   1.018   0.940  0.4043  0.4268 -0.0274
   78ANI     H4 1725   2.737   1.217   0.920 -0.1020 -2.7899 -1.6149
   78ANI     H5 1726   2.803   1.435   0.879 -1.6411 -2.1037  0.8525
   78ANI     H6 1727   3.039   1.486   0.840 -0.2707  0.2555 -0.3765
   78ANI     H7 1728   3.202   1.286   0.815  0.1653 -3.1812  0.9035
   78ANI     H8 1729   3.140   1.067   0.846 -0.6686  0.8371 -1.9404
   79ANI     C1 1730   0.041   2.997   1.201  0.1276 -0.5523  0.4247
   79ANI     O1 1731   0.139   3.099   1.180  0.2103 -0.0754 -0.1452
   79ANI     C2 1732   0.149   3.166   1.058 -0.1699 -0.2302  0.0556
   79ANI     C3 1733   0.050   3.161   0.963  0.6559 -0.4843  0.3144
   79ANI     C4 1734   0.074   3.220   0.831  0.4453  0.1511 -0.8395
   79ANI     C5 1735   0.185   3.304   0.808 -0.0080 -0.5134 -0.1071
   79ANI     C6 1736   0.282   3.316   0.914  0.1665  0.7055  0.3543
   79ANI     C7 1737   0.264   3.245   1.033  0.3855  0.5902  0.5135
   79ANI     H1 1738   0.052   2.945   1.297 -2.4066 -0.1387  0.9858
   79ANI     H2 1739  -0.061   3.036   1.191  0.1544  0.1498  2.7554
   79ANI     H3 1740   0.054   2.912   1.132  1.6355 -0.3477  0.4624
   79ANI     H4 1741  -0.044   3.107   0.975  0.2915 -0.5298 -2.3526
   79ANI     H5 1742   0.006   3.197   0.750 -2.4299  1.6511  1.0545
   79ANI     H6 1743   0.213   3.360   0.719 -1.5881  2.5665  1.2544
   79ANI     H7 1744   0.372   3.373   0.895 -0.2597  1.0739 -0.5593
   79ANI     H8 1745   0.343   3.262   1.106  2.5494  3.5043 -2.3398
   80ANI     C1 1746   2.330   1.246   3.229  0.3058 -0.0914 -0.1613
   80ANI     O1 1747   2.469   1.226   3.234 -0.3869 -0.0520 -0.3688
   80ANI     C2 1748   2.557   1.337   3.228  0.6744  0.3485 -0.4936
   80ANI     C3 1749   2.701   1.306   3.232 -0.2674  0.0719 -0.5640
   80ANI     C4 1750   2.784   1.418   3.234  0.5135  0.5207  0.3423
   80ANI     C5 1751   2.735   1.550   3.219 -0.2849 -0.2546  0.1178
   80ANI     C6 1752   2.600   1.580   3.209 -0.1012 -0.0472 -0.1568
   80ANI     C7 1753   2.511   1.470   3.209  0.6519 -0.7850 -0.7518
   80ANI     H1 1754   2.302   1.303   3.318 -1.4941 -0.6741 -0.3275
   80ANI     H2 1755   2.300   1.304   3.141 -1.4846 -0.2127  0.3381
   80ANI     H3 1756   2.272   1.153   3.235  2.2492 -1.4065 -1.3291
   80ANI     H4 1757   2.736   1.204   3.225  2.0306  0.8290 -0.4409
   80ANI     H5 1758   2.888   1.397   3.257  0.5555  1.7582  1.3497
   80ANI     H6 1759   2.798   1.638   3.225 -0.2746 -0.2853  0.4262
   80ANI     H7 1760   2.564   1.681   3.193 -0.6199 -0.4215 -1.3102
   80ANI     H8 1761   2.404   1.483   3.198  0.4460 -0.7180  1.1860
   81ANI     C1 1762   1.883   0.411   1.090 -0.0361 -0.4530  0.2791
   81ANI     O1 1763   1.937   0.542   1.062 -0.0150 -0.6972 -0.2229
   81ANI     C2 1764   1.896   0.659   1.119 -0.7016 -0.2261  0.6866
   81ANI     C3 1765   1.802   0.656   1.224  0.2566  0.4627 -0.0544
   81ANI     C4 1766   1.764   0.787   1.274  0.3919 -0.0922  0.0668
   81ANI     C5 1767   1.820   0.904   1.223 -0.0735 -0.3907  0.6871
   81ANI     C6 1768   1.898   0.897   1.108  0.1825  0.0502  0.0874
   81ANI     C7 1769   1.942   0.776   1.059 -0.1967 -0.5584  0.1569
   81ANI     H1 1770   1.879   0.382   1.196 -1.3476 -3.0215 -0.4332
   81ANI     H2 1771   1.781   0.396   1.054  0.8418 -1.0536 -2.0430
   81ANI     H3 1772   1.943   0.333   1.043 -1.1966 -1.1734 -0.0238
   81ANI     H4 1773   1.768   0.570   1.280 -1.7674  1.2673 -0.0019
   81ANI     H5 1774   1.700   0.786   1.363 -1.3043  1.1650 -1.1161
   81ANI     H6 1775   1.792   1.001   1.264 -0.0653 -0.2619  0.3898
   81ANI     H7 1776   1.924   0.987   1.053  0.1377 -0.9014 -1.5396
   81ANI     H8 1777   2.007   0.764   0.973 -2.2098 -1.7400 -1.2299
   82ANI     C1 1778   3.148   1.161   3.382 -0.6682  1.4137  0.0015
   82ANI     O1 1779   3.034   1.204   3.460  0.3938  0.0532 -0.2598
   82ANI     C2 1780   3.050   1.277   3.572  0.1640 -0.3420 -0.2171
   82ANI     C3 1781   3.122   1.236   3.683  0.4011 -0.2424 -0.4986
   82ANI     C4 1782   3.143   1.319   3.797  0.1459 -0.9370 -0.1782
   82ANI     C5 1783   3.080   1.442   3.806 -0.3012 -0.1516  0.1188
   82ANI     C6 1784   2.998   1.483   3.698  0.2448  0.2256  0.2558
   82ANI     C7 1785   2.988   1.400   3.578  0.3498  0.1100  0.1569
   82ANI     H1 1786   3.123   1.110   3.288  2.3971 -0.1313 -0.0343
   82ANI     H2 1787   3.221   1.239   3.356  0.2561  0.1878 -1.1864
   82ANI     H3 1788   3.199   1.083   3.440 -1.4780 -0.6447 -1.9788
   82ANI     H4 1789   3.168   1.138   3.681 -0.8909 -0.9180  1.6529
   82ANI     H5 1790   3.190   1.278   3.885 -2.1312 -0.8825  1.0850
   82ANI     H6 1791   3.096   1.501   3.896  0.5557  0.0945 -0.1886
   82ANI     H7 1792   2.957   1.584   3.695  2.8932  1.2998 -0.7795
   82ANI     H8 1793   2.934   1.429   3.488 -1.2877 -1.7388  0.5082
   83ANI     C1 1794   1.369   3.283   1.371 -0.3852  1.2009 -0.4623
   83ANI     O1 1795   1.434   3.406   1.322 -0.0466  0.4365  0.2094
   83ANI     C2 1796   1.406   3.451   1.193  0.6130  0.5558  0.2172
   83ANI     C3 1797   1.303   3.399   1.111  0.2426 -0.1698  0.0945
   83ANI     C4 1798   1.273   3.453   0.987 -0.0339 -0.5362 -0.0057
   83ANI     C5 1799   1.353   3.558   0.931 -0.8002  0.4498  0.2183
   83ANI     C6 1800   1.465   3.605   1.003 -0.4160 -0.3254  0.0332
   83ANI     C7 1801   1.491   3.555   1.137 -0.3635  0.2979 -0.1497
   83ANI     H1 1802   1.407   3.268   1.472 -0.9615  1.7060 -0.1680
   83ANI     H2 1803   1.262   3.311   1.368 -0.8114 -0.4838 -2.5327
   83ANI     H3 1804   1.393   3.200   1.303 -0.1828 -1.3255  2.6163
   83ANI     H4 1805   1.236   3.321   1.147  0.2941 -0.4948 -0.5029
   83ANI     H5 1806   1.199   3.410   0.920 -0.4811  1.1730 -0.6273
   83ANI     H6 1807   1.339   3.593   0.830  0.0492  0.8411  0.2352
   83ANI     H7 1808   1.531   3.679   0.961 -1.8336  1.3185  0.6436
   83ANI     H8 1809   1.577   3.589   1.192  0.1754 -2.6352  0.9132
   84ANI     C1 1810   2.065   0.421   0.692  0.0341 -0.4311 -0.4203
   84ANI     O1 1811   2.030   0.507   0.585  0.6013 -0.6355 -0.0193
   84ANI     C2 1812   1.948   0.617   0.605  0.3916 -0.4260 -0.5001
   84ANI     C3 1813   1.899   0.659   0.730  0.4943  0.7025  0.5216
   84ANI     C4 1814   1.830   0.778   0.737 -0.7070  0.5989 -0.0330
   84ANI     C5 1815   1.804   0.857   0.621  0.1196  0.0191  0.1715
   84ANI     C6 1816   1.854   0.819   0.497 -0.6266  1.1356 -0.2560
   84ANI     C7 1817   1.919   0.692   0.490 -0.2726  0.2901 -1.0552
   84ANI     H1 1818   2.109   0.329   0.653 -1.4417 -2.3155  2.1460
   84ANI     H2 1819   2.129   0.488   0.750  1.1811 -1.0216 -0.9993
   84ANI     H3 1820   1.980   0.391   0.755 -0.0192  0.6281  0.0217
   84ANI     H4 1821   1.908   0.599   0.819 -1.8129  0.7988  0.8336
   84ANI     H5 1822   1.789   0.803   0.834  0.9254 -0.3840  0.9293
   84ANI     H6 1823   1.749   0.950   0.632  0.6100  0.0867  2.1438
   84ANI     H7 1824   1.830   0.880   0.410  1.2247  0.6625 -1.1446
   84ANI     H8 1825   1.957   0.651   0.397  1.3607  1.3187 -0.8598
   85ANI     C1 1826   3.153   0.650   0.219  0.2568  0.3124 -0.0740
   85ANI     O1 1827   3.263   0.724   0.273 -0.4759 -0.0266 -0.2284
   85ANI     C2 1828   3.253   0.786   0.392 -0.1880 -0.3480 -0.3478
   85ANI     C3 1829   3.145   0.783   0.484  0.0098  0.0332 -0.2016
   85ANI     C4 1830   3.167   0.844   0.605 -0.5473  0.0875 -0.6857
   85ANI     C5 1831   3.287   0.907   0.637  0.9632  0.7322  0.4438
   85ANI     C6 1832   3.394   0.909   0.551 -0.1778 -0.5735 -0.2244
   85ANI     C7 1833   3.377   0.854   0.422 -0.1936  0.1503  0.4862
   85ANI     H1 1834   3.073   0.724   0.208  1.0903  1.5122  1.6401
   85ANI     H2 1835   3.194   0.616   0.123 -0.8916  0.3989 -0.6037
   85ANI     H3 1836   3.119   0.569   0.286  0.8496 -1.0908 -1.4435
   85ANI     H4 1837   3.065   0.715   0.456 -0.3989  0.6523 -0.5549
   85ANI     H5 1838   3.087   0.831   0.678 -0.3098  1.0327 -0.2410
   85ANI     H6 1839   3.310   0.964   0.726 -0.2466  3.3911 -0.8993
   85ANI     H7 1840   3.488   0.953   0.582  0.2565 -1.5048 -0.2281
   85ANI     H8 1841   3.462   0.847   0.354 -0.4361  0.2021  0.1763
   86ANI     C1 1842   2.520   2.529   3.774 -0.0693 -0.0741  0.8291
   86ANI     O1 1843   2.608   2.535   3.656 -0.7413 -0.8405 -0.1272
   86ANI     C2 1844   2.595   2.448   3.547 -0.0648 -0.0739 -0.0937
   86ANI     C3 1845   2.693   2.434   3.453  0.7025 -0.6588  0.6663
   86ANI     C4 1846   2.686   2.351   3.337 -0.1134  0.5357 -0.3715
   86ANI     C5 1847   2.568   2.280   3.326  0.6873  0.2833 -0.2379
   86ANI     C6 1848   2.457   2.292   3.415 -0.1724  0.2732  0.5113
   86ANI     C7 1849   2.476   2.373   3.530  0.6685  0.8887  0.5544
   86ANI     H1 1850   2.567   2.591   3.851 -1.4039  3.0287 -0.7681
   86ANI     H2 1851   2.421   2.563   3.745  0.4930  0.3682 -0.6093
   86ANI     H3 1852   2.512   2.425   3.809  1.8776 -0.2745  0.7776
   86ANI     H4 1853   2.784   2.492   3.464 -0.4138  1.0814  0.8236
   86ANI     H5 1854   2.769   2.337   3.268 -0.1365 -1.4798 -0.0106
   86ANI     H6 1855   2.558   2.221   3.235 -1.4656 -1.5387  1.1289
   86ANI     H7 1856   2.363   2.244   3.392  0.4089 -0.3970 -0.4780
   86ANI     H8 1857   2.398   2.381   3.605  2.0013  2.6180  1.7985
   87ANI     C1 1858   1.185   3.411   3.101 -0.0401 -0.0904 -0.2941
   87ANI     O1 1859   1.274   3.323   3.169 -0.6889 -0.0491 -0.0468
   87ANI     C2 1860   1.235   3.233   3.262 -0.1952 -0.3863 -0.0825
   87ANI     C3 1861   1.331   3.175   3.340  0.3546 -0.3296  0.2129
   87ANI     C4 1862   1.298   3.091   3.445  0.3462 -0.6489  0.1663
   87ANI     C5 1863   1.168   3.064   3.461  0.5777 -0.0532  0.5045
   87ANI     C6 1864   1.069   3.113   3.376 -0.0342  0.0294  0.0045
   87ANI     C7 1865   1.103   3.193   3.267 -0.0185 -0.1582 -0.1524
   87ANI     H1 1866   1.125   3.462   3.178  3.0525  2.9741  0.2396
   87ANI     H2 1867   1.244   3.486   3.047  0.5396 -1.1353 -1.1247
   87ANI     H3 1868   1.130   3.349   3.029 -2.9600  2.1011 -0.0475
   87ANI     H4 1869   1.434   3.211   3.334 -0.1586  0.9942 -1.1464
   87ANI     H5 1870   1.376   3.041   3.501  1.3714  1.1651  0.3998
   87ANI     H6 1871   1.140   2.998   3.543 -0.3424  0.8944  0.9618
   87ANI     H7 1872   0.965   3.084   3.383 -0.0084  0.3536  1.9759
   87ANI     H8 1873   1.028   3.222   3.195 -0.2601 -0.9457 -0.2275
   88ANI     C1 1874   3.349   1.420   2.228 -0.0571 -0.4169  0.1979
   88ANI     O1 1875   3.304   1.560   2.228 -0.0370  0.1121  0.1986
   88ANI     C2 1876   3.394   1.658   2.252  0.1968 -0.2695  0.1155
   88ANI     C3 1877   3.534   1.647   2.258  0.2252  0.3958  0.1739
   88ANI     C4 1878   3.610   1.757   2.301  0.2615  0.0509 -0.4083
   88ANI     C5 1879   3.554   1.886   2.300 -0.4265 -0.3282 -0.0712
   88ANI     C6 1880   3.416   1.892   2.295 -0.4063 -0.1419 -0.2976
   88ANI     C7 1881   3.337   1.782   2.276  0.2026  0.0800  0.4439
   88ANI     H1 1882   3.267   1.355   2.197  0.4515 -2.2909  2.6083
   88ANI     H2 1883   3.428   1.396   2.156 -0.2312  1.9339 -0.8149
   88ANI     H3 1884   3.377   1.384   2.328 -0.1982 -0.2895  0.2829
   88ANI     H4 1885   3.585   1.552   2.246  1.2393  1.3312 -3.3010
   88ANI     H5 1886   3.718   1.750   2.302  0.1639 -1.5428  0.1418
   88ANI     H6 1887   3.602   1.980   2.327 -1.4394  0.4767 -0.9972
   88ANI     H7 1888   3.373   1.992   2.293 -0.4956 -0.1059  1.8362
   88ANI     H8 1889   3.230   1.787   2.258  0.3286 -2.4536 -1.3151
   89ANI     C1 1890   3.105   0.209   2.677 -0.3458 -0.4344 -1.0179
   89ANI     O1 1891   3.125   0.146   2.548 -0.0988 -0.1850 -0.2503
   89ANI     C2 1892   3.016   0.102   2.478  0.4086  0.0858  0.0491
   89ANI     C3 1893   2.882   0.124   2.520  0.2021 -0.0410  0.4198
   89ANI     C4 1894   2.777   0.085   2.441 -0.0156  0.6066 -0.4666
   89ANI     C5 1895   2.801   0.020   2.318 -0.4454 -0.3201 -0.1127
   89ANI     C6 1896   2.935  -0.007   2.276  0.8878  0.6337  0.1887
   89ANI     C7 1897   3.043   0.032   2.356 -0.2573 -0.2538 -0.0843
   89ANI     H1 1898   3.040   0.297   2.667 -1.2731 -1.0573 -0.5982
   89ANI     H2 1899   3.052   0.146   2.750  2.7630 -0.9662  0.8775
   89ANI     H3 1900   3.194   0.256   2.722 -2.7668  3.4660 -0.0411
   89ANI     H4 1901   2.862   0.185   2.607  1.5512  1.3153 -0.1868
   89ANI     H5 1902   2.678   0.115   2.472  0.6877  0.2258  2.3216
   89ANI     H6 1903   2.720  -0.022   2.258  0.0143 -2.3815  0.6814
   89ANI     H7 1904   2.951  -0.060   2.182  0.3863  0.1417  0.3770
   89ANI     H8 1905   3.148   0.009   2.337 -0.4038 -2.2015  1.3448
   90ANI     C1 1906   0.469   1.409   2.349  0.1500 -0.8187  0.5174
   90ANI     O1 1907   0.381   1.303   2.327  0.4786  0.2163 -0.3604
   90ANI     C2 1908   0.419   1.175   2.298 -0.3700 -0.5290 -0.4368
   90ANI     C3 1909   0.558   1.148   2.278  0.4819 -0.7087  0.5368
   90ANI     C4 1910   0.594   1.020   2.234  0.1288  0.1950 -0.0200
   90ANI     C5 1911   0.497   0.926   2.209  0.4410  0.0505 -0.1312
   90ANI     C6 1912   0.361   0.960   2.220 -0.5414  0.2052  0.2440
   90ANI     C7 1913   0.321   1.079   2.274  0.5068 -0.1523 -0.3663
   90ANI     H1 1914   0.548   1.372   2.417  0.5522 -0.4267  0.2661
   90ANI     H2 1915   0.514   1.432   2.252  0.0634  2.9345  1.2829
   90ANI     H3 1916   0.420   1.499   2.388 -0.5132 -0.2931 -1.4754
   90ANI     H4 1917   0.635   1.221   2.301  0.4286 -0.0557 -1.3387
   90ANI     H5 1918   0.699   0.991   2.238  0.6049  1.8174 -0.4118
   90ANI     H6 1919   0.525   0.821   2.200 -0.9987 -0.3703  0.2064
   90ANI     H7 1920   0.284   0.886   2.200  0.6467 -1.4545  1.6487
   90ANI     H8 1921   0.216   1.103   2.286  0.6804  0.3172  0.2503
   91ANI     C1 1922   1.769   0.760   0.087  0.0480  0.7865 -0.0684
   91ANI     O1 1923   1.849   0.638   0.046 -0.1568  0.1035 -0.1430
   91ANI     C2 1924   1.794   0.513   0.069 -0.1856  0.1742  0.1772
   91ANI     C3 1925   1.680   0.488   0.150  0.9714  0.4272  0.0306
   91ANI     C4 1926   1.628   0.359   0.149 -0.0769 -0.1676  0.1612
   91ANI     C5 1927   1.696   0.254   0.087  0.7269  0.4433  1.0494
   91ANI     C6 1928   1.811   0.280   0.013 -0.7321  0.2840  0.1055
   91ANI     C7 1929   1.862   0.412   0.001 -0.0914  0.2496  0.3472
   91ANI     H1 1930   1.663   0.748   0.064  0.1947 -3.0210  0.9220
   91ANI     H2 1931   1.784   0.775   0.195 -1.7768 -1.0957  0.4822
   91ANI     H3 1932   1.806   0.846   0.031  0.3474  0.6725 -0.0491
   91ANI     H4 1933   1.623   0.566   0.200  0.7241  2.0582 -2.7064
   91ANI     H5 1934   1.542   0.338   0.212 -0.9523 -2.0389 -1.5988
   91ANI     H6 1935   1.666   0.151   0.104  0.9539 -0.1803 -2.0170
   91ANI     H7 1936   1.864   0.192  -0.023  0.8443  0.6541  1.4559
   91ANI     H8 1937   1.952   0.437  -0.054 -0.8588  0.8350 -0.6487
   92ANI     C1 1938   2.689   2.672   1.517  0.7794 -0.6421  0.8009
   92ANI     O1 1939   2.824   2.665   1.559 -0.4472 -0.2585 -0.1784
   92ANI     C2 1940   2.894   2.549   1.555  0.0987  0.8524 -0.0915
   92ANI     C3 1941   2.840   2.421   1.519 -0.4133 -0.0605 -0.0160
   92ANI     C4 1942   2.928   2.308   1.515  0.4161  0.5591  0.5900
   92ANI     C5 1943   3.059   2.320   1.552 -0.2526  0.8075  0.2216
   92ANI     C6 1944   3.115   2.441   1.591 -1.4984 -0.4218  0.7299
   92ANI     C7 1945   3.029   2.555   1.591  0.2805 -0.9711 -0.3967
   92ANI     H1 1946   2.635   2.607   1.586  0.2477  1.2133  2.1830
   92ANI     H2 1947   2.650   2.775   1.515  1.2872 -0.4581 -0.1782
   92ANI     H3 1948   2.677   2.633   1.415 -0.2275  1.3565  0.1217
   92ANI     H4 1949   2.736   2.404   1.493 -0.0343 -0.7486 -1.0785
   92ANI     H5 1950   2.884   2.213   1.484 -0.2559  0.2710  2.3757
   92ANI     H6 1951   3.123   2.233   1.544 -0.9115  0.4481 -1.2767
   92ANI     H7 1952   3.222   2.446   1.608 -1.1880 -1.0442 -0.9695
   92ANI     H8 1953   3.069   2.651   1.622  1.7416 -1.8965  0.6315
   93ANI     C1 1954   1.219   1.472   0.579 -0.0714  0.0657  1.5628
   93ANI     O1 1955   1.129   1.427   0.682  0.1074 -0.3355  0.3714
   93ANI     C2 1956   1.178   1.363   0.788 -0.4577 -0.1849 -0.2693
   93ANI     C3 1957   1.084   1.324   0.881  0.8761  0.4731 -0.1489
   93ANI     C4 1958   1.118   1.259   1.000  0.2235  0.6879  0.2836
   93ANI     C5 1959   1.254   1.249   1.034  0.0914  0.5210 -0.0836
   93ANI     C6 1960   1.356   1.281   0.940  1.0762  0.3752  0.7552
   93ANI     C7 1961   1.315   1.336   0.817 -0.5234 -0.4864  0.3452
   93ANI     H1 1962   1.281   1.398   0.528  1.5539  3.2244 -1.2128
   93ANI     H2 1963   1.156   1.521   0.504  0.2020 -2.6207 -0.5005
   93ANI     H3 1964   1.283   1.546   0.628  2.3963  0.3791 -1.9966
   93ANI     H4 1965   0.979   1.346   0.863  0.9029  1.3106  0.7168
   93ANI     H5 1966   1.044   1.228   1.073 -1.8315 -0.5471 -2.2434
   93ANI     H6 1967   1.289   1.208   1.128 -0.0566  1.2256  0.2834
   93ANI     H7 1968   1.460   1.273   0.969  1.2065 -1.8547 -0.2408
   93ANI     H8 1969   1.389   1.380   0.751  0.2528 -0.0887  1.4700
   94ANI     C1 1970   2.912   0.083   1.537  0.5916  0.2298 -0.3902
   94ANI     O1 1971   2.866  -0.051   1.572  0.5661 -0.3865  0.2127
   94ANI     C2 1972   2.949  -0.157   1.566  0.0152  0.0540  0.5811
   94ANI     C3 1973   3.088  -0.145   1.561 -0.3560 -0.4814 -0.2463
   94ANI     C4 1974   3.164  -0.263   1.554  0.3137 -0.0564 -0.2088
   94ANI     C5 1975   3.095  -0.385   1.559  0.2290  0.1893 -0.5237
   94ANI     C6 1976   2.958  -0.394   1.565  0.3944  0.9551 -1.0022
   94ANI     C7 1977   2.883  -0.279   1.571 -0.6848 -0.1576  0.2178
   94ANI     H1 1978   2.908   0.103   1.429 -0.6070  2.0462 -0.0241
   94ANI     H2 1979   2.837   0.158   1.563  0.6925  0.9239 -2.0302
   94ANI     H3 1980   3.010   0.109   1.580  1.2998  0.1144 -1.9081
   94ANI     H4 1981   3.140  -0.049   1.560 -1.4180  0.1670  1.9486
   94ANI     H5 1982   3.272  -0.264   1.562  0.3636  0.7089 -0.7355
   94ANI     H6 1983   3.156  -0.473   1.540  0.4076 -0.1102  1.3460
   94ANI     H7 1984   2.906  -0.490   1.565  0.8612  0.6850  0.5861
   94ANI     H8 1985   2.776  -0.291   1.580 -0.6069 -0.8742  0.2050
   95ANI     C1 1986   1.461   2.078   1.156  0.1654 -0.0157  0.0283
   95ANI     O1 1987   1.465   2.127   1.292  0.2025  0.1237  0.2012
   95ANI     C2 1988   1.356   2.192   1.349  0.2500  0.2671 -0.3012
   95ANI     C3 1989   1.233   2.200   1.281 -0.1299 -0.7850  0.8002
   95ANI     C4 1990   1.120   2.261   1.343  0.5752 -0.1916 -0.1309
   95ANI     C5 1991   1.130   2.298   1.480 -0.3223  0.0804  0.1182
   95ANI     C6 1992   1.259   2.297   1.541  0.5490 -0.1910  0.0053
   95ANI     C7 1993   1.367   2.244   1.482  0.0487  0.1805 -0.4291
   95ANI     H1 1994   1.442   2.166   1.093 -1.6006 -1.8100 -1.9892
   95ANI     H2 1995   1.553   2.029   1.121 -0.8724 -1.2156 -1.0457
   95ANI     H3 1996   1.373   2.013   1.149  0.4237 -0.4539  0.8311
   95ANI     H4 1997   1.230   2.184   1.174  0.1040  2.0665  0.3540
   95ANI     H5 1998   1.030   2.275   1.284 -1.4883  0.1145  2.9726
   95ANI     H6 1999   1.052   2.353   1.530 -0.4308 -0.3315  0.4079
   95ANI     H7 2000   1.271   2.327   1.644 -2.1938  0.8301  0.0759
   95ANI     H8 2001   1.461   2.240   1.537  0.4500  0.1428 -1.1084
   96ANI     C1 2002   2.137   0.638   0.178  0.2655 -0.1253  0.2697
   96ANI     O1 2003   2.250   0.541   0.156 -0.1903  0.4818 -0.0928
   96ANI     C2 2004   2.358   0.586   0.091 -0.7495 -0.5164 -0.5932
   96ANI     C3 2005   2.370   0.720   0.048 -0.1696 -0.4262 -0.4454
   96ANI     C4 2006   2.488   0.763  -0.031 -0.0878  0.5321  0.2201
   96ANI     C5 2007   2.593   0.668  -0.048  0.1745 -0.1208  0.2751
   96ANI     C6 2008   2.590   0.539   0.023 -0.4970  0.0120 -0.3577
   96ANI     C7 2009   2.470   0.503   0.083  0.4036  0.6495  0.1038
   96ANI     H1 2010   2.048   0.574   0.181  0.7916 -0.9905 -1.8667
   96ANI     H2 2011   2.153   0.694   0.272 -1.5232  2.9404 -1.1620
   96ANI     H3 2012   2.115   0.702   0.092 -1.0109  1.0163  1.4054
   96ANI     H4 2013   2.288   0.789   0.066  0.2063  0.0162 -0.4289
   96ANI     H5 2014   2.488   0.862  -0.073 -3.9890  0.6782  0.4056
   96ANI     H6 2015   2.688   0.701  -0.091 -0.7691  2.4520  0.0674
   96ANI     H7 2016   2.680   0.479   0.029 -0.4646 -0.1462 -2.1610
   96ANI     H8 2017   2.469   0.404   0.127  0.6801 -0.3326 -2.0478
   97ANI     C1 2018   0.075   1.437   3.593 -0.0531 -0.4122  0.0189
   97ANI     O1 2019   0.139   1.327   3.661  0.1676  0.0562  0.8546
   97ANI     C2 2020   0.274   1.331   3.694  0.0728 -0.1218 -0.5391
   97ANI     C3 2021   0.327   1.226   3.770 -0.4024 -1.0894 -0.3367
   97ANI     C4 2022   0.463   1.237   3.824  0.1161 -0.5100  0.5517
   97ANI     C5 2023   0.538   1.359   3.803  0.1391  0.0560  0.1161
   97ANI     C6 2024   0.487   1.450   3.712 -0.1955 -1.0396 -0.3685
   97ANI     C7 2025   0.350   1.446   3.664  0.1688  0.9850  0.6885
   97ANI     H1 2026  -0.033   1.430   3.607  0.0037 -1.9715 -0.1546
   97ANI     H2 2027   0.109   1.528   3.643 -0.1175 -1.0186  1.1872
   97ANI     H3 2028   0.094   1.433   3.485 -2.2872 -2.4406 -0.3446
   97ANI     H4 2029   0.266   1.142   3.801 -1.1718  0.0699  1.3618
   97ANI     H5 2030   0.500   1.158   3.889  3.1706  0.8157  0.4924
   97ANI     H6 2031   0.638   1.366   3.844  0.3233  0.5955 -0.4025
   97ANI     H7 2032   0.537   1.542   3.682 -0.9708 -1.3952 -2.9144
   97ANI     H8 2033   0.320   1.528   3.599  0.1598 -0.6331 -1.3965
   98ANI     C1 2034   1.364   3.434   0.136  0.4143 -0.5688 -0.4308
   98ANI     O1 2035   1.413   3.474   0.260 -0.2023  0.2969  0.4009
   98ANI     C2 2036   1.374   3.597   0.306  0.1174 -0.6391  0.2198
   98ANI     C3 2037   1.405   3.623   0.443  0.1420 -0.1661 -0.1002
   98ANI     C4 2038   1.366   3.751   0.492 -0.5194 -0.4818  0.5765
   98ANI     C5 2039   1.308   3.845   0.417  0.4426  0.0245  1.0257
   98ANI     C6 2040   1.276   3.816   0.281 -0.8067 -0.3323  0.6641
   98ANI     C7 2041   1.310   3.692   0.229  0.1016 -0.7257  0.1903
   98ANI     H1 2042   1.254   3.441   0.134  0.4287 -0.2317 -0.1231
   98ANI     H2 2043   1.390   3.512   0.063  1.9646 -0.9701 -0.3228
   98ANI     H3 2044   1.403   3.337   0.104  0.2853 -0.8175  0.1494
   98ANI     H4 2045   1.457   3.544   0.497  0.8382  1.1444  1.2088
   98ANI     H5 2046   1.398   3.775   0.593  0.3897 -0.1999  0.2284
   98ANI     H6 2047   1.282   3.942   0.458  1.4771  1.4185 -1.4908
   98ANI     H7 2048   1.224   3.891   0.221  0.5838 -0.1977 -0.3793
   98ANI     H8 2049   1.285   3.679   0.124  1.7386 -0.6988 -0.2131
   99ANI     C1 2050   0.886   2.384   2.250 -0.1110 -0.5770 -0.3840
   99ANI     O1 2051   0.744   2.384   2.269  0.7135 -0.1673 -0.2187
   99ANI     C2 2052   0.661   2.272   2.266 -0.2710  0.2909 -0.0760
   99ANI     C3 2053   0.708   2.143   2.225 -0.4551  0.2828  0.2851
   99ANI     C4 2054   0.623   2.034   2.218 -0.6307 -0.4836 -0.4306
   99ANI     C5 2055   0.496   2.046   2.270 -0.4321  0.3016  0.2039
   99ANI     C6 2056   0.448   2.170   2.313  0.3905  0.2275  0.5007
   99ANI     C7 2057   0.528   2.281   2.319  0.1869 -1.0295 -0.7623
   99ANI     H1 2058   0.938   2.463   2.305 -1.6428 -0.5997  1.1494
   99ANI     H2 2059   0.919   2.286   2.286 -2.7994 -2.3076 -2.4352
   99ANI     H3 2060   0.924   2.389   2.147  0.3544 -1.2345 -0.2496
   99ANI     H4 2061   0.807   2.136   2.181 -0.5909  2.6120 -0.5037
   99ANI     H5 2062   0.653   1.943   2.165  0.4588  0.8768 -2.2105
   99ANI     H6 2063   0.426   1.964   2.279 -1.6593  1.0757 -1.9025
   99ANI     H7 2064   0.350   2.166   2.359 -0.9628  1.2857 -2.1766
   99ANI     H8 2065   0.501   2.371   2.374 -0.9310 -0.2983 -2.4869
  100ANI     C1 2066   0.722   3.244   0.285  0.1270 -0.1819 -0.0446
  100ANI     O1 2067   0.798   3.286   0.404 -0.6384 -0.0164 -0.4103
  100ANI     C2 2068   0.847   3.412   0.420 -0.2123 -0.3651  0.8086
  100ANI     C3 2069   0.802   3.519   0.339 -0.5860  0.7098  0.4728
  100ANI     C4 2070   0.849   3.642   0.353 -0.2790  0.0790  0.2414
  100ANI     C5 2071   0.936   3.676   0.452 -0.3148 -0.3953  0.3472
  100ANI     C6 2072   0.988   3.576   0.531  0.3533  0.6105  1.1857
  100ANI     C7 2073   0.944   3.434   0.517 -0.3257 -0.0061  0.1831
  100ANI     H1 2074   0.625   3.291   0.269  1.5806  3.2980  0.8928
  100ANI     H2 2075   0.778   3.255   0.191  2.1748 -1.2565  0.9970
  100ANI     H3 2076   0.707   3.136   0.300 -2.6609  0.2896  0.8578
  100ANI     H4 2077   0.719   3.509   0.269 -1.3341 -0.2655  1.4660
  100ANI     H5 2078   0.805   3.723   0.296 -2.7928  0.0261  2.0150
  100ANI     H6 2079   0.968   3.779   0.465  0.0052 -0.0234 -3.0113
  100ANI     H7 2080   1.061   3.595   0.610  1.2937 -0.8570  0.7101
  100ANI     H8 2081   0.985   3.355   0.580 -0.0077  0.5171  0.6404
  101ANI     C1 2082   1.685   1.630   0.600  0.8103 -1.3881 -0.4761
  101ANI     O1 2083   1.806   1.592   0.663 -0.0764 -0.0714 -0.0693
  101ANI     C2 2084   1.884   1.489   0.613 -1.0956  0.0668 -1.0623
  101ANI     C3 2085   1.829   1.390   0.524  0.3049  0.2355 -0.4886
  101ANI     C4 2086   1.922   1.289   0.476  0.0118 -0.2817  0.3279
  101ANI     C5 2087   2.052   1.287   0.529 -0.3516  0.0363  0.1745
  101ANI     C6 2088   2.100   1.380   0.620  0.2373 -0.5600 -0.0073
  101ANI     C7 2089   2.018   1.484   0.658 -0.0864  0.1452 -0.0111
  101ANI     H1 2090   1.703   1.637   0.492 -0.5987 -1.8711 -0.7450
  101ANI     H2 2091   1.598   1.566   0.620 -1.6920  1.9821 -0.0906
  101ANI     H3 2092   1.657   1.731   0.634 -1.0543 -1.3069 -2.1267
  101ANI     H4 2093   1.722   1.388   0.505  0.0365  0.6364  0.9337
  101ANI     H5 2094   1.879   1.208   0.418 -1.1871 -0.0654  0.8844
  101ANI     H6 2095   2.129   1.215   0.505 -0.0496  1.1220 -2.1908
  101ANI     H7 2096   2.203   1.375   0.654  0.2608 -1.5852 -0.2443
  101ANI     H8 2097   2.056   1.560   0.725  0.0708  0.0230  0.0395
  102ANI     C1 2098   2.006   2.739   2.928 -0.3014  0.2877 -0.2345
  102ANI     O1 2099   2.039   2.607   2.893  0.6539 -0.0592  0.1271
  102ANI     C2 2100   2.067   2.512   2.988 -0.2802 -0.1876 -0.4173
  102ANI     C3 2101   2.041   2.527   3.123 -0.0238  0.6244 -0.0536
  102ANI     C4 2102   2.089   2.438   3.218 -0.2968  0.3773  0.0342
  102ANI     C5 2103   2.153   2.319   3.179 -0.3082 -0.4080  0.4378
  102ANI     C6 2104   2.174   2.298   3.044 -0.3456  0.6098 -0.1090
  102ANI     C7 2105   2.138   2.397   2.953 -0.0041 -0.3059  0.9161
  102ANI     H1 2106   1.991   2.792   2.833  1.5764 -0.6685 -1.0890
  102ANI     H2 2107   1.915   2.761   2.986 -1.0962 -1.1856 -0.9035
  102ANI     H3 2108   2.088   2.776   2.991  1.4197 -0.0315 -2.2213
  102ANI     H4 2109   1.987   2.610   3.169 -1.0220  0.6271 -1.2036
  102ANI     H5 2110   2.066   2.459   3.322  0.9273 -0.7627  0.5594
  102ANI     H6 2111   2.167   2.238   3.250  1.4033 -0.2438  0.3046
  102ANI     H7 2112   2.227   2.211   3.007 -1.5416  0.0179 -0.4842
  102ANI     H8 2113   2.165   2.388   2.848  0.2963  0.3371  0.9343
  103ANI     C1 2114   0.305   2.246   1.014  0.2210  0.0102 -0.4240
  103ANI     O1 2115   0.428   2.214   1.073 -0.1596  0.7277  0.1566
  103ANI     C2 2116   0.544   2.278   1.064  0.4690  0.2480  0.3466
  103ANI     C3 2117   0.655   2.222   1.129  0.5959 -0.4342 -0.8760
  103ANI     C4 2118   0.785   2.279   1.117  0.1975  0.5584  0.5479
  103ANI     C5 2119   0.806   2.395   1.049 -1.0503  0.5106 -0.1212
  103ANI     C6 2120   0.690   2.458   0.995  0.4746  0.0077 -0.0467
  103ANI     C7 2121   0.563   2.401   0.987 -0.3089  0.6394 -0.3751
  103ANI     H1 2122   0.226   2.184   1.059 -0.0677 -1.1294 -2.4531
  103ANI     H2 2123   0.287   2.354   1.022 -0.0331 -0.0200 -0.5817
  103ANI     H3 2124   0.309   2.236   0.905  0.0841 -1.3615 -0.3116
  103ANI     H4 2125   0.642   2.136   1.193  5.0204 -0.7514 -0.2457
  103ANI     H5 2126   0.866   2.216   1.154 -0.2731 -0.6270 -0.4198
  103ANI     H6 2127   0.904   2.438   1.034 -0.4793  0.4711  3.2859
  103ANI     H7 2128   0.696   2.552   0.941 -2.4244  0.6526  0.6813
  103ANI     H8 2129   0.481   2.446   0.931  0.8695  1.8476 -1.1363
  104ANI     C1 2130   2.233   0.935   3.425 -0.3390 -0.5207  0.0796
  104ANI     O1 2131   2.328   1.033   3.456 -0.0744  0.1636  0.0692
  104ANI     C2 2132   2.457   0.992   3.470 -0.4701 -0.1627  0.1466
  104ANI     C3 2133   2.546   1.093   3.503 -0.0827  0.4300  0.5330
  104ANI     C4 2134   2.683   1.063   3.512 -0.1511  0.9195 -0.3509
  104ANI     C5 2135   2.734   0.927   3.492  0.0566  0.3069  0.1336
  104ANI     C6 2136   2.637   0.829   3.461  0.2456  0.3524  0.6403
  104ANI     C7 2137   2.500   0.863   3.455 -0.1172  0.5879  0.1573
  104ANI     H1 2138   2.241   0.858   3.503  0.6255  0.3628  0.8576
  104ANI     H2 2139   2.130   0.973   3.424 -1.1168 -2.4846  1.5757
  104ANI     H3 2140   2.251   0.897   3.324 -1.6905 -1.3882  0.1526
  104ANI     H4 2141   2.511   1.196   3.501  0.4902  0.6383  1.1250
  104ANI     H5 2142   2.755   1.143   3.528 -0.2664  1.1565 -1.0448
  104ANI     H6 2143   2.841   0.909   3.490 -0.0811 -0.7383  1.1631
  104ANI     H7 2144   2.668   0.728   3.438 -0.2021  0.4649 -0.5088
  104ANI     H8 2145   2.439   0.773   3.447  3.8245 -2.1169 -0.8049
  105ANI     C1 2146   1.990   2.579   1.225  0.3692  1.1466 -0.5277
  105ANI     O1 2147   1.913   2.657   1.319 -0.8563 -0.5194 -0.1258
  105ANI     C2 2148   1.800   2.611   1.376  0.2770 -0.4346  1.0564
  105ANI     C3 2149   1.726   2.510   1.316  0.0309  0.1967 -0.0193
  105ANI     C4 2150   1.610   2.463   1.381 -0.4703 -0.2530  0.2129
  105ANI     C5 2151   1.556   2.530   1.494  0.0758  0.5117 -0.9727
  105ANI     C6 2152   1.627   2.641   1.543 -1.0918  0.6998 -0.0696
  105ANI     C7 2153   1.746   2.681   1.479  0.3066  0.6788 -0.2359
  105ANI     H1 2154   1.922   2.574   1.139 -2.4790  0.2690  1.6988
  105ANI     H2 2155   2.087   2.625   1.202  1.1628  1.2053  2.6574
  105ANI     H3 2156   2.013   2.477   1.257  1.8349  0.6078 -3.1452
  105ANI     H4 2157   1.754   2.466   1.221  1.5688  0.8795  0.0853
  105ANI     H5 2158   1.558   2.378   1.339  1.1141 -0.9431 -0.3584
  105ANI     H6 2159   1.464   2.501   1.543 -0.7390  1.3054 -2.0141
  105ANI     H7 2160   1.580   2.700   1.622 -0.2520 -0.2230  1.1461
  105ANI     H8 2161   1.792   2.773   1.514  1.1146  0.3078 -0.3149
  106ANI     C1 2162   2.921   0.901   3.017 -0.6270 -0.6842  0.0446
  106ANI     O1 2163   3.059   0.923   3.058 -0.2430  0.3271  0.1020
  106ANI     C2 2164   3.117   1.048   3.030  1.0224  0.3186 -0.5553
  106ANI     C3 2165   3.044   1.169   3.014  0.6210  0.2393  0.2493
  106ANI     C4 2166   3.100   1.293   2.987  0.0543  0.5061 -0.2221
  106ANI     C5 2167   3.237   1.296   2.964 -0.6246  0.4225  0.1415
  106ANI     C6 2168   3.316   1.185   2.976 -0.5038  0.1244  0.1426
  106ANI     C7 2169   3.256   1.063   3.014 -0.4884 -0.0906 -0.2384
  106ANI     H1 2170   2.902   0.946   2.919  0.4153 -1.1867 -0.4049
  106ANI     H2 2171   2.888   0.798   2.999  0.1361 -0.8332 -0.5741
  106ANI     H3 2172   2.849   0.946   3.085  0.0031  3.3729 -1.7794
  106ANI     H4 2173   2.937   1.167   3.037 -0.2743  1.8076 -3.4848
  106ANI     H5 2174   3.034   1.375   2.960 -1.0699 -0.6437 -1.0684
  106ANI     H6 2175   3.275   1.394   2.936 -0.6748  0.4707  0.2440
  106ANI     H7 2176   3.422   1.191   2.953 -0.3259 -0.7642  0.7147
  106ANI     H8 2177   3.323   0.978   3.022  0.0268  0.1439 -1.9268
  107ANI     C1 2178   2.098   1.863   2.831  0.4657  0.2312  0.3844
  107ANI     O1 2179   2.199   1.787   2.904  0.6245 -0.0453  0.2543
  107ANI     C2 2180   2.262   1.678   2.851  0.5985  0.7244  0.0302
  107ANI     C3 2181   2.233   1.630   2.725 -0.0073 -0.0545  0.5107
  107ANI     C4 2182   2.311   1.532   2.669 -0.1717  0.4373 -0.1439
  107ANI     C5 2183   2.413   1.475   2.746 -0.4015 -0.3351 -0.4019
  107ANI     C6 2184   2.439   1.515   2.872 -0.2431 -0.4546 -0.3534
  107ANI     C7 2185   2.362   1.623   2.922  0.6437 -0.3400  0.3313
  107ANI     H1 2186   1.999   1.816   2.835  0.6463 -0.3131 -1.4710
  107ANI     H2 2187   2.083   1.965   2.870 -0.4022  0.5302 -0.7162
  107ANI     H3 2188   2.119   1.872   2.724 -2.1126 -0.1961 -0.1958
  107ANI     H4 2189   2.153   1.672   2.665 -0.5214  0.2463  1.3889
  107ANI     H5 2190   2.306   1.505   2.564  0.1067 -3.5702  0.7626
  107ANI     H6 2191   2.486   1.412   2.697  2.6207  2.2469  0.6411
  107ANI     H7 2192   2.529   1.489   2.927 -1.1901  0.6423  1.7827
  107ANI     H8 2193   2.392   1.660   3.020  2.2454 -1.1930  0.1819
  108ANI     C1 2194   2.748   3.184   3.397 -0.1623  0.2740 -0.5867
  108ANI     O1 2195   2.856   3.128   3.464  0.5676 -0.0220 -0.2516
  108ANI     C2 2196   2.979   3.192   3.475 -0.0086  0.2678 -0.1885
  108ANI     C3 2197   3.085   3.120   3.523  0.1658 -0.0664 -0.8025
  108ANI     C4 2198   3.205   3.182   3.561  0.0811  0.4434  0.3935
  108ANI     C5 2199   3.226   3.319   3.531 -0.6791 -0.2082 -0.5816
  108ANI     C6 2200   3.120   3.396   3.466 -0.8626 -0.5770  0.3649
  108ANI     C7 2201   2.999   3.330   3.437 -0.6525 -0.5742 -0.3243
  108ANI     H1 2202   2.778   3.215   3.296  0.5979  3.6419  0.5978
  108ANI     H2 2203   2.669   3.108   3.386 -0.2261  0.3782 -0.8765
  108ANI     H3 2204   2.710   3.270   3.453 -1.3360 -0.0824 -0.8202
  108ANI     H4 2205   3.075   3.015   3.551 -0.7041 -0.0104 -0.8880
  108ANI     H5 2206   3.280   3.124   3.614  0.3363  1.8928  1.6843
  108ANI     H6 2207   3.313   3.370   3.570 -1.6198  0.1341  1.1597
  108ANI     H7 2208   3.143   3.498   3.438  0.8575 -0.4150  2.2023
  108ANI     H8 2209   2.917   3.384   3.392 -0.9795  0.3264  1.2984
  109ANI     C1 2210   0.199   0.345   1.556  0.9977  0.4060 -0.8273
  109ANI     O1 2211   0.304   0.391   1.471  0.1238 -0.1478 -0.2324
  109ANI     C2 2212   0.376   0.316   1.381 -0.0453 -0.2959 -0.2534
  109ANI     C3 2213   0.333   0.191   1.339  0.1427  0.4443  0.4672
  109ANI     C4 2214   0.401   0.116   1.245 -0.3883  0.3253  0.4720
  109ANI     C5 2215   0.514   0.173   1.184 -0.0354  0.4173  0.0401
  109ANI     C6 2216   0.550   0.306   1.211 -0.4707  0.8031  0.3142
  109ANI     C7 2217   0.483   0.373   1.308  0.8381  0.4552 -0.9148
  109ANI     H1 2218   0.170   0.413   1.637 -1.0130 -0.0315 -1.1444
  109ANI     H2 2219   0.112   0.341   1.489 -1.1140 -1.5923  1.8990
  109ANI     H3 2220   0.226   0.252   1.607 -1.6642 -0.7655 -1.4519
  109ANI     H4 2221   0.254   0.145   1.398 -1.5940  1.5793 -0.8927
  109ANI     H5 2222   0.375   0.012   1.226  0.3156 -0.1665  2.1186
  109ANI     H6 2223   0.574   0.124   1.108  0.4836  1.5176 -0.2583
  109ANI     H7 2224   0.636   0.351   1.162 -1.3058 -0.1665 -2.0980
  109ANI     H8 2225   0.519   0.475   1.323  1.1609  0.3020 -0.6377
  110ANI     C1 2226   2.152   0.224   0.341 -0.6452  0.4357  0.3739
  110ANI     O1 2227   2.188   0.094   0.394  0.2291 -0.1390  0.4100
  110ANI     C2 2228   2.308   0.065   0.451 -0.4360 -0.4348 -0.4290
  110ANI     C3 2229   2.328  -0.069   0.478 -0.1000 -0.4901 -0.1156
  110ANI     C4 2230   2.454  -0.110   0.536 -0.7115  0.3857  0.4726
  110ANI     C5 2231   2.560  -0.020   0.556  0.6421 -0.1144 -0.3289
  110ANI     C6 2232   2.541   0.117   0.520 -0.0950  0.1770 -0.0596
  110ANI     C7 2233   2.411   0.157   0.478 -0.2605 -0.1135 -0.9101
  110ANI     H1 2234   2.225   0.255   0.265  2.0623  0.6204  2.9833
  110ANI     H2 2235   2.052   0.214   0.295 -1.0763 -0.0647  1.4008
  110ANI     H3 2236   2.144   0.303   0.417 -0.1807  1.8243 -0.9853
  110ANI     H4 2237   2.246  -0.138   0.471 -0.9400  0.4350  0.4787
  110ANI     H5 2238   2.457  -0.214   0.570  1.1098  0.2168 -0.1476
  110ANI     H6 2239   2.657  -0.036   0.601  0.3312 -3.3702 -0.6755
  110ANI     H7 2240   2.619   0.190   0.537  0.1303  0.6596 -2.9484
  110ANI     H8 2241   2.404   0.265   0.467  1.1933  0.1669  0.7204
  111ANI     C1 2242   1.883   3.221   3.710  0.0130 -0.6545 -0.4170
  111ANI     O1 2243   1.818   3.163   3.822  0.4440 -0.6922  0.3369
  111ANI     C2 2244   1.850   3.175   3.954 -0.1810  0.4881 -0.7466
  111ANI     C3 2245   1.958   3.249   4.006 -0.0133 -0.0471  1.2771
  111ANI     C4 2246   1.990   3.244   4.143 -0.2828 -0.1661 -0.1166
  111ANI     C5 2247   1.905   3.175   4.226 -0.4890  0.1481 -0.0846
  111ANI     C6 2248   1.798   3.099   4.173  0.8780 -0.1511  0.3656
  111ANI     C7 2249   1.766   3.100   4.034 -0.3511 -0.4019 -0.1796
  111ANI     H1 2250   1.826   3.215   3.616 -1.2852  1.0041  0.2341
  111ANI     H2 2251   1.902   3.328   3.728 -1.6636 -0.2928 -0.7099
  111ANI     H3 2252   1.988   3.190   3.704  0.9863  1.6559  2.8851
  111ANI     H4 2253   2.033   3.299   3.945 -0.2635  0.7382  1.6072
  111ANI     H5 2254   2.069   3.307   4.182  0.7600 -1.8033  0.4205
  111ANI     H6 2255   1.920   3.184   4.333  0.4833 -0.9099 -0.1170
  111ANI     H7 2256   1.731   3.045   4.239 -0.4098  0.8405 -0.1085
  111ANI     H8 2257   1.678   3.051   3.995 -1.3995 -0.1773  1.8881
  112ANI     C1 2258   2.420   1.961   0.776 -0.6243 -0.4777  0.0196
  112ANI     O1 2259   2.405   1.903   0.648  0.5209  0.1492  0.1328
  112ANI     C2 2260   2.280   1.862   0.602 -0.1629 -0.0662 -0.4583
  112ANI     C3 2261   2.282   1.766   0.503 -0.0658 -1.0681  0.2677
  112ANI     C4 2262   2.159   1.721   0.453 -0.2448 -0.0943  0.1518
  112ANI     C5 2263   2.034   1.770   0.504 -0.6392  0.9775  0.0931
  112ANI     C6 2264   2.035   1.870   0.604 -0.1197  0.1536 -0.5594
  112ANI     C7 2265   2.160   1.915   0.652  0.2760  0.2122 -0.0066
  112ANI     H1 2266   2.525   1.952   0.806 -0.5095  2.1581  0.5313
  112ANI     H2 2267   2.388   2.065   0.788 -1.0982 -0.4314 -1.5179
  112ANI     H3 2268   2.360   1.904   0.848 -0.9984 -0.0289  0.0658
  112ANI     H4 2269   2.375   1.728   0.462  0.8203  0.7990  0.4788
  112ANI     H5 2270   2.155   1.642   0.379  0.6839  0.0352 -0.0401
  112ANI     H6 2271   1.937   1.729   0.479 -0.2687  0.7600 -1.0220
  112ANI     H7 2272   1.944   1.891   0.659  0.5289  2.7363 -0.4309
  112ANI     H8 2273   2.164   1.982   0.738 -0.1649  0.2219  0.0036
  113ANI     C1 2274   2.322   3.301   3.651 -0.2859  0.6770 -0.3087
  113ANI     O1 2275   2.356   3.440   3.674  1.1210  0.2824 -0.4580
  113ANI     C2 2276   2.484   3.485   3.651  0.5422 -0.4402  0.1033
  113ANI     C3 2277   2.598   3.403   3.651  0.2807 -0.1361 -0.2667
  113ANI     C4 2278   2.722   3.460   3.629  0.6900  0.0658 -0.2064
  113ANI     C5 2279   2.737   3.599   3.629 -0.8654  0.0391  0.1891
  113ANI     C6 2280   2.627   3.678   3.622 -0.1565  0.4764 -0.1449
  113ANI     C7 2281   2.501   3.626   3.641 -0.4950 -0.2527 -0.2659
  113ANI     H1 2282   2.337   3.245   3.744 -1.4360 -1.9444 -1.6524
  113ANI     H2 2283   2.218   3.281   3.620  0.4904 -2.1082 -1.2390
  113ANI     H3 2284   2.382   3.255   3.572  2.2727 -0.5677  2.2910
  113ANI     H4 2285   2.584   3.299   3.678 -1.2570 -0.1238 -0.9600
  113ANI     H5 2286   2.811   3.399   3.643 -1.0158 -2.5053 -0.3416
  113ANI     H6 2287   2.832   3.652   3.634 -0.8481 -0.0426  0.8032
  113ANI     H7 2288   2.640   3.786   3.619 -3.1562  0.8972  0.7716
  113ANI     H8 2289   2.419   3.696   3.628 -0.0937  0.0204 -1.3980
  114ANI     C1 2290   0.487   1.885   0.065  0.4876 -0.5145 -0.0062
  114ANI     O1 2291   0.391   1.841  -0.031  0.7037 -0.1190  0.2343
  114ANI     C2 2292   0.262   1.885  -0.042 -0.0738 -0.1414  0.2633
  114ANI     C3 2293   0.168   1.825  -0.126  0.1891  0.3399 -0.3832
  114ANI     C4 2294   0.033   1.859  -0.123  0.3086 -0.2268 -1.0030
  114ANI     C5 2295  -0.007   1.957  -0.031 -0.0447 -0.0927 -0.0380
  114ANI     C6 2296   0.090   2.024   0.046 -0.4247  0.0779 -0.5480
  114ANI     C7 2297   0.221   1.988   0.045  0.1029  0.5734 -0.6872
  114ANI     H1 2298   0.454   1.882   0.170  2.6594 -1.9419  0.6750
  114ANI     H2 2299   0.571   1.815   0.069  1.3298  0.5198  0.6947
  114ANI     H3 2300   0.514   1.980   0.018  1.0402 -1.2189 -1.1357
  114ANI     H4 2301   0.201   1.744  -0.190 -2.2416 -0.7867 -0.2507
  114ANI     H5 2302  -0.042   1.806  -0.181 -0.5472  1.5518 -1.5784
  114ANI     H6 2303  -0.109   1.993  -0.032 -1.2779 -3.4616 -0.8654
  114ANI     H7 2304   0.057   2.088   0.127  1.9306 -0.5540  0.9638
  114ANI     H8 2305   0.289   2.040   0.112 -0.5050  0.9913 -0.3815
  115ANI     C1 2306   0.079   3.138   0.012 -0.2852 -0.3096  0.3385
  115ANI     O1 2307   0.220   3.174  -0.005  0.5811  0.3297 -0.5930
  115ANI     C2 2308   0.323   3.081   0.001  0.4053 -0.9690 -0.8109
  115ANI     C3 2309   0.297   2.940  -0.017 -0.1037 -0.8324  0.5537
  115ANI     C4 2310   0.402   2.847  -0.002 -0.6928  0.6293 -0.0818
  115ANI     C5 2311   0.532   2.895   0.025 -0.2627 -0.3582 -0.3733
  115ANI     C6 2312   0.559   3.035   0.038  0.2613  0.5761 -0.1891
  115ANI     C7 2313   0.452   3.125   0.029  0.2085  0.4158  0.9732
  115ANI     H1 2314   0.049   3.064  -0.063 -0.3444  0.3308 -0.2728
  115ANI     H2 2315   0.080   3.096   0.113  3.0697  0.7184  0.8181
  115ANI     H3 2316   0.010   3.223   0.018 -2.1556 -1.4757 -3.1683
  115ANI     H4 2317   0.198   2.897  -0.027  0.4613 -2.9178  3.3251
  115ANI     H5 2318   0.386   2.739  -0.005 -0.0335  0.5529 -1.4007
  115ANI     H6 2319   0.620   2.836   0.048 -1.5500 -1.3717  2.1262
  115ANI     H7 2320   0.657   3.074   0.064  0.1573  0.1444  0.8687
  115ANI     H8 2321   0.474   3.230   0.049 -0.7284  0.2736  2.7940
  116ANI     C1 2322   0.832   1.884   0.381  0.0549  0.5393 -0.0879
  116ANI     O1 2323   0.930   1.847   0.476 -0.2527 -0.0667  0.1331
  116ANI     C2 2324   0.925   1.880   0.605  0.4205 -0.7561 -0.2799
  116ANI     C3 2325   1.007   1.809   0.702  0.1517  0.1092 -0.1818
  116ANI     C4 2326   1.004   1.852   0.835 -0.2360 -0.7586  0.0157
  116ANI     C5 2327   0.935   1.976   0.867  0.0169 -0.1782  0.1167
  116ANI     C6 2328   0.863   2.049   0.769  0.2226  0.1160  0.0247
  116ANI     C7 2329   0.849   1.997   0.639  0.1825 -0.0454  0.1054
  116ANI     H1 2330   0.731   1.850   0.405  0.7963 -1.2545  0.5433
  116ANI     H2 2331   0.837   1.989   0.349  0.0916  1.2923  2.3022
  116ANI     H3 2332   0.855   1.822   0.293  0.3556 -1.0165  1.0801
  116ANI     H4 2333   1.058   1.718   0.673  3.0330  1.2499  1.1157
  116ANI     H5 2334   1.055   1.781   0.899 -0.5818 -1.2040 -0.1994
  116ANI     H6 2335   0.925   1.994   0.974  2.1298 -2.9183  0.8197
  116ANI     H7 2336   0.810   2.140   0.795 -0.0197  0.2946 -1.0686
  116ANI     H8 2337   0.800   2.056   0.563 -2.7681 -0.9978  1.1736
  117ANI     C1 2338   1.649   2.820   2.878 -0.4167 -0.1571  0.2679
  117ANI     O1 2339   1.541   2.747   2.931 -0.6373  0.6663  0.1184
  117ANI     C2 2340   1.479   2.649   2.854 -0.2256  0.6999  0.3991
  117ANI     C3 2341   1.371   2.596   2.915 -0.8642  0.2725 -0.2345
  117ANI     C4 2342   1.293   2.492   2.858  0.0550  0.6458 -0.1206
  117ANI     C5 2343   1.332   2.441   2.735 -0.1891 -0.4051 -0.1425
  117ANI     C6 2344   1.447   2.492   2.671 -0.6324 -0.6082  0.3878
  117ANI     C7 2345   1.520   2.598   2.727  0.0514 -0.1375 -0.3577
  117ANI     H1 2346   1.682   2.891   2.955 -0.2517  1.4152 -1.2262
  117ANI     H2 2347   1.730   2.752   2.847 -1.3698 -1.8100  1.2769
  117ANI     H3 2348   1.621   2.867   2.783 -1.0123  1.6858  1.3401
  117ANI     H4 2349   1.345   2.633   3.014  1.2654  0.7869  0.1443
  117ANI     H5 2350   1.201   2.464   2.909 -0.0939  0.1226 -0.6681
  117ANI     H6 2351   1.266   2.373   2.683  0.5782  1.3754 -3.6871
  117ANI     H7 2352   1.490   2.448   2.582  1.9844  0.5959  1.0031
  117ANI     H8 2353   1.596   2.658   2.678 -2.6309  2.8435 -1.0335
  118ANI     C1 2354   1.813   3.007   3.404  0.0384  0.0243 -1.0908
  118ANI     O1 2355   1.776   2.967   3.536 -0.0777  0.4797 -0.0952
  118ANI     C2 2356   1.775   2.837   3.582 -0.4264  0.2537  0.5573
  118ANI     C3 2357   1.765   2.725   3.495  0.8699  0.6651  0.5782
  118ANI     C4 2358   1.774   2.594   3.539 -0.4532 -0.3427  0.0570
  118ANI     C5 2359   1.801   2.576   3.681 -0.0264  0.3956 -0.0067
  118ANI     C6 2360   1.806   2.688   3.771  0.9922  0.3290  0.4937
  118ANI     C7 2361   1.788   2.819   3.717  0.5135  0.1740 -0.0098
  118ANI     H1 2362   1.738   2.962   3.337 -2.7140 -1.4465  2.7897
  118ANI     H2 2363   1.817   3.116   3.397 -0.7184  0.1422  0.1381
  118ANI     H3 2364   1.914   2.965   3.394  1.2270  2.1118  1.5909
  118ANI     H4 2365   1.755   2.741   3.388 -1.8052 -0.4261  0.6386
  118ANI     H5 2366   1.757   2.507   3.476 -1.6732  0.5668 -0.8901
  118ANI     H6 2367   1.817   2.477   3.722 -1.5522  0.3352  0.4696
  118ANI     H7 2368   1.817   2.671   3.878  2.8602 -1.0046  0.1157
  118ANI     H8 2369   1.805   2.902   3.785 -1.7140  0.2437  0.5125
  119ANI     C1 2370   2.812   0.482   3.144  0.3215  0.5169  0.6301
  119ANI     O1 2371   2.802   0.475   3.284 -0.1966  0.0600  0.0465
  119ANI     C2 2372   2.868   0.565   3.367 -0.2961  0.6150  0.0724
  119ANI     C3 2373   2.846   0.549   3.503 -0.1855 -0.1763  0.3102
  119ANI     C4 2374   2.921   0.630   3.598 -0.2029 -0.5405 -0.3205
  119ANI     C5 2375   3.016   0.712   3.542 -0.6057 -0.3367 -0.7685
  119ANI     C6 2376   3.034   0.738   3.408 -0.0916  0.5716 -0.5530
  119ANI     C7 2377   2.969   0.655   3.321 -0.5199  0.5874  0.1836
  119ANI     H1 2378   2.771   0.579   3.112  0.7515  0.9170  1.2676
  119ANI     H2 2379   2.915   0.468   3.108 -0.2800  2.8579 -2.2594
  119ANI     H3 2380   2.757   0.399   3.098 -0.0003  1.6840 -1.1441
  119ANI     H4 2381   2.777   0.469   3.529  2.2165 -2.1075  0.9006
  119ANI     H5 2382   2.906   0.617   3.704  0.3872 -0.8436 -0.2689
  119ANI     H6 2383   3.068   0.782   3.607 -2.6895  1.3716 -0.8899
  119ANI     H7 2384   3.106   0.812   3.374 -1.7682  2.9360  0.8824
  119ANI     H8 2385   2.971   0.666   3.213 -1.2461 -0.4503  0.0533
  120ANI     C1 2386   2.570   3.295   1.287 -0.4721  0.7495  0.3844
  120ANI     O1 2387   2.610   3.267   1.153 -0.2676  0.7411 -0.3767
  120ANI     C2 2388   2.741   3.302   1.122  0.8203 -0.5186 -0.2901
  120ANI     C3 2389   2.765   3.371   1.002  0.4008 -1.1927 -0.2120
  120ANI     C4 2390   2.891   3.400   0.964 -0.5412 -0.2873 -0.4164
  120ANI     C5 2391   3.005   3.357   1.032  0.8091 -0.2038 -0.0890
  120ANI     C6 2392   2.987   3.295   1.156 -0.5537  0.4428 -0.2383
  120ANI     C7 2393   2.857   3.273   1.199  0.4203  0.2978  0.5401
  120ANI     H1 2394   2.466   3.270   1.313 -0.7386  1.2311 -0.1963
  120ANI     H2 2395   2.627   3.227   1.351 -1.5495  0.2852  0.8592
  120ANI     H3 2396   2.589   3.399   1.318 -0.6045  0.6845  0.6932
  120ANI     H4 2397   2.684   3.420   0.948  2.6650  0.8685 -1.8330
  120ANI     H5 2398   2.901   3.466   0.878 -4.3065  2.2842  1.0221
  120ANI     H6 2399   3.105   3.394   1.010  0.7588  0.5308  0.8718
  120ANI     H7 2400   3.072   3.263   1.215 -0.2728  0.7872 -0.4551
  120ANI     H8 2401   2.850   3.210   1.288 -0.3980 -0.0763  0.2223
  121ANI     C1 2402   1.423   1.774   2.647  0.5146 -0.0225  0.2052
  121ANI     O1 2403   1.322   1.737   2.550  0.2078 -0.1395  0.6121
  121ANI     C2 2404   1.328   1.629   2.469 -0.1294  0.1700  0.6297
  121ANI     C3 2405   1.222   1.611   2.375  0.3513  0.0430 -0.8604
  121ANI     C4 2406   1.227   1.495   2.286  0.1450 -0.1866  0.0669
  121ANI     C5 2407   1.341   1.413   2.286 -0.4022 -0.8601 -0.1006
  121ANI     C6 2408   1.448   1.435   2.381 -0.0410  0.6735  0.0909
  121ANI     C7 2409   1.440   1.541   2.472  0.1638  0.0308 -0.3548
  121ANI     H1 2410   1.518   1.802   2.600  1.0562 -1.8235  0.1834
  121ANI     H2 2411   1.395   1.867   2.698 -1.4575 -0.3095 -0.2986
  121ANI     H3 2412   1.440   1.693   2.719 -3.7835 -1.0368  0.2402
  121ANI     H4 2413   1.139   1.681   2.386  1.6911  1.7090 -1.1140
  121ANI     H5 2414   1.150   1.473   2.213  1.2718 -1.0725 -0.8645
  121ANI     H6 2415   1.357   1.338   2.210 -2.7600 -1.7254  0.2043
  121ANI     H7 2416   1.535   1.371   2.392 -1.6805 -1.7466 -0.7264
  121ANI     H8 2417   1.523   1.552   2.542 -0.6273 -0.3029  0.6461
  122ANI     C1 2418   0.950   0.091   3.518 -0.3532 -0.6567  0.0415
  122ANI     O1 2419   0.882  -0.013   3.589  0.0302  0.0618  0.3834
  122ANI     C2 2420   0.944  -0.107   3.661  0.3167 -0.6141  0.5292
  122ANI     C3 2421   1.083  -0.107   3.686 -0.2947  0.1059  0.0291
  122ANI     C4 2422   1.142  -0.223   3.739  0.2289  0.1310  0.1272
  122ANI     C5 2423   1.065  -0.333   3.781 -0.3104  0.2142  0.0885
  122ANI     C6 2424   0.930  -0.331   3.758 -0.1598 -0.5103  0.0572
  122ANI     C7 2425   0.862  -0.213   3.704  0.1095 -0.1091 -0.1194
  122ANI     H1 2426   1.008   0.149   3.590 -0.4435 -0.0601 -0.3664
  122ANI     H2 2427   1.017   0.046   3.444 -0.1254  0.2996 -0.3417
  122ANI     H3 2428   0.878   0.161   3.473 -2.6692 -1.9087  1.7069
  122ANI     H4 2429   1.147  -0.021   3.668  0.1150 -0.1788  0.1112
  122ANI     H5 2430   1.249  -0.221   3.751  0.2493 -1.6507  0.2801
  122ANI     H6 2431   1.115  -0.419   3.825 -0.5101  0.0667  0.0231
  122ANI     H7 2432   0.868  -0.415   3.790 -1.0981  0.3388  0.4918
  122ANI     H8 2433   0.754  -0.221   3.693  0.4258 -2.3143 -2.0495
  123ANI     C1 2434   0.467   3.397   2.888  0.4393  0.5889  0.7307
  123ANI     O1 2435   0.606   3.408   2.863  0.0762  0.7740 -0.2341
  123ANI     C2 2436   0.688   3.300   2.893 -0.1820 -0.5794  0.3829
  123ANI     C3 2437   0.823   3.304   2.852  0.0262 -0.0859 -0.5951
  123ANI     C4 2438   0.910   3.199   2.882  0.3714  0.9549  0.0868
  123ANI     C5 2439   0.872   3.085   2.957  0.4939  0.4491  0.4014
  123ANI     C6 2440   0.733   3.085   3.005  0.1309 -0.2505  0.3596
  123ANI     C7 2441   0.647   3.186   2.972 -0.0500  0.0838  1.1312
  123ANI     H1 2442   0.453   3.359   2.990  1.6801 -0.1493  0.6394
  123ANI     H2 2443   0.417   3.494   2.901 -0.8001  0.2569 -1.3109
  123ANI     H3 2444   0.421   3.334   2.811  0.0340  1.0926  0.5556
  123ANI     H4 2445   0.854   3.381   2.783  0.1286  0.0172 -0.4353
  123ANI     H5 2446   1.011   3.210   2.842  0.7966 -0.6103  0.6786
  123ANI     H6 2447   0.942   3.011   2.992 -2.6040 -1.5580  2.6662
  123ANI     H7 2448   0.695   3.008   3.071 -1.2761 -2.0376 -2.4595
  123ANI     H8 2449   0.546   3.177   3.009  0.8842  1.3649  4.1902
  124ANI     C1 2450   0.905   2.646   1.541 -0.8268  0.0389 -0.5336
  124ANI     O1 2451   1.045   2.645   1.528  0.0950  0.7916  0.6145
  124ANI     C2 2452   1.117   2.761   1.544  0.2378 -0.7319  0.0320
  124ANI     C3 2453   1.062   2.894   1.560  0.5887 -0.1598 -0.5574
  124ANI     C4 2454   1.146   3.008   1.561  0.0189 -0.5759 -0.1627
  124ANI     C5 2455   1.287   2.990   1.548  0.3291  0.4516 -0.0245
  124ANI     C6 2456   1.337   2.863   1.533 -0.0922 -0.3106  0.3940
  124ANI     C7 2457   1.257   2.751   1.535 -1.1513 -0.1031  0.6313
  124ANI     H1 2458   0.868   2.545   1.520 -2.3433  0.6835 -1.0209
  124ANI     H2 2459   0.882   2.677   1.643 -1.9529  1.7035 -1.2746
  124ANI     H3 2460   0.874   2.723   1.469 -2.7475  0.0558  0.3061
  124ANI     H4 2461   0.955   2.911   1.562  0.4557 -1.1345  1.6209
  124ANI     H5 2462   1.106   3.109   1.556  5.6944  1.7881 -0.6535
  124ANI     H6 2463   1.345   3.082   1.541 -1.7573  1.7841 -0.1407
  124ANI     H7 2464   1.445   2.860   1.519 -0.2646  0.2515 -1.0861
  124ANI     H8 2465   1.307   2.654   1.530  1.0839  0.9068  2.4155
  125ANI     C1 2466   1.396   1.825   1.526 -0.5479  0.3127  0.1099
  125ANI     O1 2467   1.379   1.750   1.403 -0.1162 -0.3255 -1.0844
  125ANI     C2 2468   1.269   1.762   1.328  0.6188 -0.3684  0.0183
  125ANI     C3 2469   1.185   1.876   1.334 -0.0190 -0.6799 -0.5620
  125ANI     C4 2470   1.069   1.894   1.247  0.2828  0.3902  0.2321
  125ANI     C5 2471   1.034   1.781   1.167  0.2043 -0.6129  0.7170
  125ANI     C6 2472   1.116   1.669   1.175 -0.0281  0.3389 -0.2744
  125ANI     C7 2473   1.236   1.659   1.237 -0.0801 -0.4141  0.1370
  125ANI     H1 2474   1.487   1.788   1.575 -0.4107 -1.2960 -1.3373
  125ANI     H2 2475   1.408   1.933   1.509  0.2163  0.3737  0.9580
  125ANI     H3 2476   1.313   1.811   1.597  0.7991  0.4385  1.7373
  125ANI     H4 2477   1.223   1.967   1.380  1.9963 -2.0964  0.6817
  125ANI     H5 2478   1.016   1.989   1.248 -2.4627 -1.1225  2.1107
  125ANI     H6 2479   0.944   1.778   1.106  1.8949  1.5604 -1.9888
  125ANI     H7 2480   1.083   1.585   1.114  1.5142 -0.2841 -0.2580
  125ANI     H8 2481   1.296   1.569   1.232 -0.6709 -0.7285 -1.3756
  126ANI     C1 2482   0.236   0.406   0.464 -0.1652 -0.2430  0.2613
  126ANI     O1 2483   0.382   0.393   0.485 -0.1032  0.2711 -0.0413
  126ANI     C2 2484   0.439   0.314   0.594 -0.1506  0.2408  0.5299
  126ANI     C3 2485   0.364   0.255   0.695 -0.1899 -0.5894 -0.2852
  126ANI     C4 2486   0.435   0.192   0.801 -0.0367  0.1644 -0.1727
  126ANI     C5 2487   0.573   0.177   0.799 -0.4516  0.9034  0.1733
  126ANI     C6 2488   0.649   0.221   0.686 -0.8491 -0.6290  0.2781
  126ANI     C7 2489   0.580   0.296   0.585  0.6294 -0.0626  0.7762
  126ANI     H1 2490   0.199   0.303   0.448 -0.3194 -0.1529  0.0376
  126ANI     H2 2491   0.187   0.467   0.541  4.1429  3.8048 -0.0071
  126ANI     H3 2492   0.218   0.460   0.370  0.1058 -1.0500 -0.2616
  126ANI     H4 2493   0.256   0.251   0.696 -0.2972  1.2640 -2.3788
  126ANI     H5 2494   0.384   0.169   0.895  0.9382 -1.1018  0.0603
  126ANI     H6 2495   0.613   0.120   0.882 -0.7521  0.9995  0.3882
  126ANI     H7 2496   0.757   0.211   0.685 -0.7920 -0.0010 -0.2522
  126ANI     H8 2497   0.638   0.350   0.510  2.2475 -3.4899 -0.5124
  127ANI     C1 2498   1.447   2.447   2.237  0.0357  0.1990 -0.3333
  127ANI     O1 2499   1.481   2.580   2.206  0.4524 -0.3093 -0.0670
  127ANI     C2 2500   1.401   2.689   2.232  0.0602  0.2799 -0.3405
  127ANI     C3 2501   1.458   2.815   2.233 -0.2846 -0.0257 -0.0634
  127ANI     C4 2502   1.384   2.929   2.257  0.2329 -0.5281  0.7263
  127ANI     C5 2503   1.246   2.917   2.278  0.5356 -0.0701 -0.3098
  127ANI     C6 2504   1.183   2.792   2.274  0.3831  0.0851 -0.3203
  127ANI     C7 2505   1.264   2.679   2.261 -0.1948 -0.1905  0.9056
  127ANI     H1 2506   1.354   2.407   2.195 -0.0168  0.8876 -0.8771
  127ANI     H2 2507   1.524   2.382   2.193 -0.1676 -1.1917  1.3284
  127ANI     H3 2508   1.443   2.431   2.345  2.3906  1.2367 -0.0523
  127ANI     H4 2509   1.564   2.821   2.211  0.1698 -2.8769  1.1004
  127ANI     H5 2510   1.434   3.025   2.253  2.1501 -1.5126  0.4080
  127ANI     H6 2511   1.179   3.003   2.278  0.3535 -0.2066  0.7654
  127ANI     H7 2512   1.077   2.784   2.297  0.8978  0.9116  2.4446
  127ANI     H8 2513   1.219   2.580   2.262 -0.3445 -0.1353 -0.0909
  128ANI     C1 2514   2.141   3.269   1.233  0.0578 -0.2803 -0.3825
  128ANI     O1 2515   1.999   3.247   1.219 -0.1369  0.7903 -0.5334
  128ANI     C2 2516   1.928   3.188   1.312  0.2562 -0.1850  0.1287
  128ANI     C3 2517   1.787   3.176   1.297  0.2874 -0.0179 -0.0101
  128ANI     C4 2518   1.716   3.101   1.391 -0.2624 -0.6456  0.0873
  128ANI     C5 2519   1.775   3.048   1.509  0.2578 -0.1122  0.1050
  128ANI     C6 2520   1.912   3.062   1.524  0.4521 -0.4147 -0.0949
  128ANI     C7 2521   1.989   3.129   1.424  0.1461 -0.6834  0.2328
  128ANI     H1 2522   2.192   3.175   1.208 -0.2090 -0.1729 -1.3700
  128ANI     H2 2523   2.172   3.344   1.159 -0.6198 -1.0759 -1.4800
  128ANI     H3 2524   2.175   3.322   1.323 -0.7504  0.2680 -0.3971
  128ANI     H4 2525   1.750   3.234   1.213 -3.2447 -0.0901  1.4113
  128ANI     H5 2526   1.608   3.100   1.379 -0.1799  1.3824 -0.9810
  128ANI     H6 2527   1.716   3.003   1.588  0.3141  0.5885  0.5531
  128ANI     H7 2528   1.962   3.027   1.614  2.9462 -1.0666 -1.6514
  128ANI     H8 2529   2.094   3.143   1.449 -0.4332  1.1936  1.7253
  129ANI     C1 2530   1.026   1.692   2.684  0.0197 -0.3194  0.0517
  129ANI     O1 2531   0.900   1.738   2.733  0.1618  0.3861 -0.5934
  129ANI     C2 2532   0.868   1.760   2.861  0.7522  0.4696  0.0271
  129ANI     C3 2533   0.952   1.721   2.968 -0.0597 -0.1256 -0.3642
  129ANI     C4 2534   0.919   1.756   3.104 -0.6765 -0.1737  1.0541
  129ANI     C5 2535   0.813   1.838   3.129  0.3922  0.1383 -0.6600
  129ANI     C6 2536   0.726   1.869   3.025 -0.1902 -0.1942  0.4032
  129ANI     C7 2537   0.757   1.832   2.890  0.1576 -0.7633  0.3789
  129ANI     H1 2538   1.113   1.737   2.735 -0.4566 -0.2374  0.7881
  129ANI     H2 2539   1.028   1.583   2.671  0.2789 -0.2183 -0.7889
  129ANI     H3 2540   1.035   1.730   2.581  2.9434  0.2496  0.4670
  129ANI     H4 2541   1.043   1.666   2.945 -0.6579 -1.0753 -0.5173
  129ANI     H5 2542   0.990   1.737   3.184 -1.6434  0.7671  2.1566
  129ANI     H6 2543   0.779   1.874   3.225  1.5829  0.2307 -0.2575
  129ANI     H7 2544   0.634   1.918   3.053  0.7086  0.8250  1.6061
  129ANI     H8 2545   0.690   1.859   2.809  0.5206  1.5197  0.8191
  130ANI     C1 2546   3.139   2.218   3.065 -0.7956 -0.1316 -0.7106
  130ANI     O1 2547   3.240   2.290   3.123 -0.4363  0.0081  0.3935
  130ANI     C2 2548   3.265   2.421   3.090  0.0870 -0.5124 -0.4384
  130ANI     C3 2549   3.380   2.481   3.140  0.1339 -0.3469 -0.2039
  130ANI     C4 2550   3.407   2.613   3.102  0.1434  0.4930 -0.9260
  130ANI     C5 2551   3.322   2.687   3.008 -0.2570 -0.1748 -0.1903
  130ANI     C6 2552   3.210   2.619   2.959 -0.0466  0.5028 -0.6362
  130ANI     C7 2553   3.184   2.489   3.004 -0.4604 -0.1103  0.2693
  130ANI     H1 2554   3.146   2.111   3.088 -0.8398  0.1288  0.5677
  130ANI     H2 2555   3.046   2.250   3.113 -0.5623 -0.4963 -0.0059
  130ANI     H3 2556   3.134   2.233   2.957 -0.3818 -2.1868 -1.0417
  130ANI     H4 2557   3.439   2.440   3.221 -1.1824 -0.3856  0.7419
  130ANI     H5 2558   3.506   2.654   3.121  0.8771 -1.2993 -0.8250
  130ANI     H6 2559   3.359   2.777   2.960  2.9342 -1.9871 -1.2667
  130ANI     H7 2560   3.154   2.661   2.876  0.0402  2.0032  0.0538
  130ANI     H8 2561   3.094   2.444   2.964  0.9271 -2.0154 -0.7605
  131ANI     C1 2562   1.825   1.671   3.091  0.9665 -0.0912 -0.1034
  131ANI     O1 2563   1.708   1.717   3.160  0.7005 -0.4432  0.0691
  131ANI     C2 2564   1.705   1.759   3.288 -0.4573  0.3280  0.9318
  131ANI     C3 2565   1.811   1.731   3.377 -0.3455  0.0841 -0.1907
  131ANI     C4 2566   1.796   1.756   3.516  0.5406 -0.0731 -0.0671
  131ANI     C5 2567   1.692   1.824   3.566  0.2820 -0.7227 -0.6801
  131ANI     C6 2568   1.595   1.867   3.471 -0.3354 -0.2551  0.3111
  131ANI     C7 2569   1.596   1.831   3.333  0.6003  0.3815 -0.0539
  131ANI     H1 2570   1.798   1.641   2.989 -0.8446  0.8134  0.0847
  131ANI     H2 2571   1.902   1.747   3.075 -0.0744  1.4461  1.9113
  131ANI     H3 2572   1.868   1.582   3.136  1.1216  0.5889  1.1127
  131ANI     H4 2573   1.904   1.693   3.335 -0.1885  0.4932 -0.2155
  131ANI     H5 2574   1.874   1.718   3.581  0.1755  0.2841  0.5754
  131ANI     H6 2575   1.684   1.857   3.669 -0.9665  0.3265 -1.0912
  131ANI     H7 2576   1.512   1.926   3.507  0.4884  1.9843 -1.3566
  131ANI     H8 2577   1.526   1.879   3.265  0.9028  2.1917  0.8671
  132ANI     C1 2578   3.327   0.659   1.536  0.7087 -1.0527  1.1207
  132ANI     O1 2579   3.196   0.729   1.526  0.3079  0.4516  0.1445
  132ANI     C2 2580   3.078   0.668   1.554  0.5088  0.5242  0.0906
  132ANI     C3 2581   3.065   0.526   1.563 -0.2433 -0.5106 -0.4570
  132ANI     C4 2582   2.939   0.468   1.577 -0.0962 -0.3703 -0.2595
  132ANI     C5 2583   2.826   0.555   1.582 -0.6144 -0.3709  0.0481
  132ANI     C6 2584   2.835   0.696   1.570 -0.3003 -0.4940  0.8669
  132ANI     C7 2585   2.962   0.754   1.566  0.4226 -0.0944 -0.1843
  132ANI     H1 2586   3.345   0.622   1.637  2.3662  0.0006  1.2248
  132ANI     H2 2587   3.327   0.572   1.469 -0.8430  0.2459 -0.6442
  132ANI     H3 2588   3.407   0.723   1.498  0.9627 -2.9536 -1.6739
  132ANI     H4 2589   3.147   0.456   1.559  0.1512 -0.3160  2.5532
  132ANI     H5 2590   2.929   0.361   1.591  1.4249 -0.4963 -0.0727
  132ANI     H6 2591   2.736   0.498   1.606  0.2378 -1.5517  0.4964
  132ANI     H7 2592   2.742   0.753   1.569  0.9526  1.6202  0.6226
  132ANI     H8 2593   2.975   0.861   1.557 -0.0761 -0.0455 -0.3313
  133ANI     C1 2594   2.598   3.046   2.289  0.4034  0.1712  0.3027
  133ANI     O1 2595   2.521   2.955   2.230  0.5396  0.5518 -0.2199
  133ANI     C2 2596   2.540   2.820   2.248 -0.3960  0.1309 -0.0740
  133ANI     C3 2597   2.425   2.735   2.236 -0.3896  0.4353  0.3688
  133ANI     C4 2598   2.444   2.592   2.252  0.2726 -0.0103  0.0526
  133ANI     C5 2599   2.572   2.534   2.254 -0.2901 -0.0498 -0.3129
  133ANI     C6 2600   2.689   2.621   2.260 -0.0269 -0.8907 -0.2620
  133ANI     C7 2601   2.674   2.759   2.263 -0.6626  0.6079 -0.6449
  133ANI     H1 2602   2.547   3.139   2.261  1.5016 -0.1073 -2.9176
  133ANI     H2 2603   2.601   3.035   2.398  0.7620 -1.8859  0.1082
  133ANI     H3 2604   2.701   3.045   2.251 -0.5095 -0.9624 -2.2436
  133ANI     H4 2605   2.328   2.780   2.215 -1.4403 -1.1282  1.8239
  133ANI     H5 2606   2.351   2.537   2.245  0.3502 -0.0232 -0.8641
  133ANI     H6 2607   2.570   2.426   2.242 -1.5915 -0.0764  0.0980
  133ANI     H7 2608   2.789   2.578   2.262  0.8545  1.0696 -0.5577
  133ANI     H8 2609   2.764   2.819   2.253  0.2634 -1.0985 -3.1545
  134ANI     C1 2610   0.732   1.170   0.593 -0.1398 -0.7367  0.5131
  134ANI     O1 2611   0.833   1.079   0.621 -0.3366  0.0967 -0.6601
  134ANI     C2 2612   0.826   0.950   0.574 -0.3816 -0.6465  0.5978
  134ANI     C3 2613   0.911   0.848   0.622 -0.2169  0.6900  0.3640
  134ANI     C4 2614   0.928   0.725   0.553  0.4687 -0.8409 -0.0526
  134ANI     C5 2615   0.851   0.698   0.436 -0.3318 -0.0849 -0.2915
  134ANI     C6 2616   0.760   0.790   0.386 -0.4107  0.0542 -0.4992
  134ANI     C7 2617   0.747   0.917   0.461  0.6948  0.1826  0.6744
  134ANI     H1 2618   0.723   1.245   0.673  0.2148 -0.1845  0.0310
  134ANI     H2 2619   0.738   1.217   0.494 -1.8892  1.1770  1.2822
  134ANI     H3 2620   0.630   1.129   0.588 -0.8174  0.4115  3.3823
  134ANI     H4 2621   0.959   0.869   0.717 -1.3892 -1.7529  1.5206
  134ANI     H5 2622   0.993   0.651   0.599  1.0942 -1.2796 -1.6089
  134ANI     H6 2623   0.867   0.605   0.382  2.7613 -0.7944  1.7481
  134ANI     H7 2624   0.706   0.772   0.293 -0.0711  0.9448 -0.8686
  134ANI     H8 2625   0.701   1.000   0.409  4.3637  1.0068 -1.4571
  135ANI     C1 2626   0.322   0.396   3.029 -0.3302  0.1457  0.0225
  135ANI     O1 2627   0.190   0.354   2.996 -0.2602 -0.4922 -0.7104
  135ANI     C2 2628   0.088   0.435   3.019 -0.3634 -0.6195 -0.0042
  135ANI     C3 2629   0.098   0.571   3.068  0.5000  0.8102 -0.3790
  135ANI     C4 2630  -0.015   0.650   3.097 -0.6401  0.4730  0.0427
  135ANI     C5 2631  -0.143   0.604   3.063 -0.2668  0.2418 -0.6816
  135ANI     C6 2632  -0.154   0.478   3.001  0.7455  0.1829 -0.9850
  135ANI     C7 2633  -0.040   0.399   2.976  0.1942 -0.0751 -0.0431
  135ANI     H1 2634   0.355   0.381   3.133  0.3812 -1.1992 -0.3965
  135ANI     H2 2635   0.389   0.327   2.977  0.5495  0.5709  0.5846
  135ANI     H3 2636   0.339   0.499   2.997  0.6439 -0.1694 -0.4878
  135ANI     H4 2637   0.196   0.608   3.098 -0.3515  2.6516  0.2435
  135ANI     H5 2638   0.007   0.741   3.153  1.3658  1.5406 -2.4036
  135ANI     H6 2639  -0.232   0.662   3.086 -0.2545 -0.0430  0.1026
  135ANI     H7 2640  -0.252   0.446   2.965 -0.1115  2.2540 -0.5724
  135ANI     H8 2641  -0.056   0.306   2.922  1.3202 -0.6428  0.5794
  136ANI     C1 2642   1.200   0.882   0.836 -0.1774  0.5916  0.2719
  136ANI     O1 2643   1.315   0.802   0.803  0.6436 -0.1778 -0.0559
  136ANI     C2 2644   1.371   0.712   0.893 -0.2075  0.2748 -0.8095
  136ANI     C3 2645   1.312   0.688   1.021 -0.7767  0.7492 -0.2969
  136ANI     C4 2646   1.378   0.600   1.106  1.0308 -0.9503 -0.3539
  136ANI     C5 2647   1.493   0.525   1.068  0.5665 -0.6321 -0.4283
  136ANI     C6 2648   1.548   0.547   0.935 -0.0481  0.1175 -0.1804
  136ANI     C7 2649   1.488   0.640   0.851 -0.4308 -0.2417  0.3454
  136ANI     H1 2650   1.114   0.814   0.847 -0.7445  1.1974 -0.3727
  136ANI     H2 2651   1.207   0.926   0.936 -0.4458  2.2725 -0.4330
  136ANI     H3 2652   1.180   0.962   0.764 -0.5997 -0.4051 -0.7300
  136ANI     H4 2653   1.218   0.735   1.050  0.2990  1.9868  1.2944
  136ANI     H5 2654   1.338   0.571   1.203  1.2477  0.2087  0.0897
  136ANI     H6 2655   1.543   0.458   1.137  0.2303 -0.6158 -0.1659
  136ANI     H7 2656   1.624   0.481   0.892 -0.2863  0.3988 -1.0439
  136ANI     H8 2657   1.522   0.657   0.749 -1.9322  1.5667  0.1126
  137ANI     C1 2658   2.433   2.440   1.259  0.4391 -0.4101 -0.2185
  137ANI     O1 2659   2.499   2.404   1.138 -0.0519  0.4981 -0.4229
  137ANI     C2 2660   2.479   2.474   1.021 -0.4827 -0.1440  0.9093
  137ANI     C3 2661   2.415   2.602   1.016 -0.6712 -0.3419 -0.6219
  137ANI     C4 2662   2.380   2.663   0.888  0.2862 -0.5286 -0.4263
  137ANI     C5 2663   2.424   2.600   0.771 -0.2255  0.5842 -0.1390
  137ANI     C6 2664   2.496   2.482   0.782 -0.4837 -0.0229  0.6262
  137ANI     C7 2665   2.519   2.417   0.905 -0.2377  0.6075  0.3233
  137ANI     H1 2666   2.457   2.360   1.331 -0.1135 -0.0194  0.4021
  137ANI     H2 2667   2.451   2.543   1.294 -1.3520 -0.4001  0.7142
  137ANI     H3 2668   2.325   2.432   1.246  0.1027 -1.2281  2.7338
  137ANI     H4 2669   2.372   2.652   1.101  0.4427  0.1765 -0.3543
  137ANI     H5 2670   2.325   2.757   0.892  0.4480 -0.4458 -0.1640
  137ANI     H6 2671   2.401   2.652   0.679  0.5659 -2.2775 -2.0434
  137ANI     H7 2672   2.518   2.434   0.687  1.4184 -0.0080  1.0325
  137ANI     H8 2673   2.569   2.321   0.912  0.7900  0.9644 -1.7002
  138ANI     C1 2674   0.362   0.522   2.278 -0.4557  0.1779  0.2025
  138ANI     O1 2675   0.431   0.405   2.236  0.0035  0.5846 -0.1407
  138ANI     C2 2676   0.570   0.405   2.228  0.5698  0.1861  0.1877
  138ANI     C3 2677   0.644   0.520   2.224 -0.5731 -0.6309  0.2401
  138ANI     C4 2678   0.783   0.516   2.198 -0.1418 -0.8024 -0.0215
  138ANI     C5 2679   0.851   0.393   2.189  0.1391  0.5470 -0.0412
  138ANI     C6 2680   0.773   0.278   2.188  0.2968  0.4796  0.9038
  138ANI     C7 2681   0.633   0.279   2.205  0.4939  0.0700  0.1635
  138ANI     H1 2682   0.401   0.549   2.377  0.2571 -2.0352  0.5689
  138ANI     H2 2683   0.389   0.612   2.222 -0.8051  0.2509  0.1495
  138ANI     H3 2684   0.256   0.495   2.275 -0.9685  1.9595  1.3196
  138ANI     H4 2685   0.591   0.612   2.248 -0.7398 -1.0657  1.6083
  138ANI     H5 2686   0.844   0.606   2.200 -0.4112 -0.5829 -1.0600
  138ANI     H6 2687   0.960   0.390   2.192  0.2103  2.9612  2.1834
  138ANI     H7 2688   0.821   0.181   2.180 -1.7810 -0.8556  3.4576
  138ANI     H8 2689   0.567   0.194   2.201  0.2122  0.1066  3.0003
  139ANI     C1 2690   2.986   0.598   2.716  0.9031  0.1742  0.8150
  139ANI     O1 2691   2.914   0.504   2.799  0.3662 -0.5082  0.4017
  139ANI     C2 2692   2.798   0.445   2.763 -0.0902  0.6464  0.8245
  139ANI     C3 2693   2.753   0.331   2.825  0.0997 -0.2606  0.3651
  139ANI     C4 2694   2.648   0.255   2.772 -0.4025 -0.4014 -0.1154
  139ANI     C5 2695   2.573   0.313   2.668  0.1748 -0.0051  0.2376
  139ANI     C6 2696   2.607   0.434   2.610 -0.3430  0.3310  0.1350
  139ANI     C7 2697   2.725   0.500   2.657  0.1263  0.2736 -0.5895
  139ANI     H1 2698   2.924   0.683   2.684 -0.3682 -0.6893  0.9141
  139ANI     H2 2699   3.083   0.630   2.754  1.4570 -0.6699  0.1370
  139ANI     H3 2700   3.011   0.542   2.625  3.5265  0.7643  1.1534
  139ANI     H4 2701   2.815   0.288   2.903  1.3704 -1.3924 -1.2396
  139ANI     H5 2702   2.625   0.162   2.823 -1.1861 -1.0462 -1.6109
  139ANI     H6 2703   2.479   0.264   2.646 -0.0156  0.7163 -0.5828
  139ANI     H7 2704   2.541   0.472   2.533 -0.5779 -1.6988 -0.6999
  139ANI     H8 2705   2.754   0.595   2.614  1.8341  0.0141 -0.0569
  140ANI     C1 2706   1.154   1.284   2.714  0.1921  0.2271 -0.2473
  140ANI     O1 2707   1.158   1.260   2.856 -0.7114 -0.1853  0.3139
  140ANI     C2 2708   1.199   1.368   2.939 -0.3379 -0.1422  0.2701
  140ANI     C3 2709   1.263   1.486   2.886 -0.4370 -0.3675 -0.9372
  140ANI     C4 2710   1.311   1.587   2.968  0.8038  0.1235  1.0007
  140ANI     C5 2711   1.300   1.572   3.111  1.0453  1.0060  0.1051
  140ANI     C6 2712   1.243   1.460   3.169  0.4806  0.1584 -0.1831
  140ANI     C7 2713   1.187   1.361   3.083 -0.2580  0.9188 -0.2550
  140ANI     H1 2714   1.252   1.325   2.685  0.3880  0.0157  0.1038
  140ANI     H2 2715   1.143   1.186   2.666 -2.8973  0.5109 -0.2070
  140ANI     H3 2716   1.072   1.354   2.696 -1.4933 -1.4683  0.7510
  140ANI     H4 2717   1.280   1.507   2.781  0.0814 -0.9338 -0.9686
  140ANI     H5 2718   1.361   1.670   2.918 -0.7410 -0.0607 -0.9568
  140ANI     H6 2719   1.344   1.652   3.170  0.6948  0.3890  1.2118
  140ANI     H7 2720   1.233   1.453   3.277 -1.4486 -0.2158 -0.3671
  140ANI     H8 2721   1.147   1.274   3.134  1.0271  0.2457 -0.3809
  141ANI     C1 2722   2.198   1.949   0.189  0.4197 -0.6253  0.4840
  141ANI     O1 2723   2.270   2.041   0.099 -0.7059 -0.1837  0.0084
  141ANI     C2 2724   2.400   2.006   0.054 -0.8535 -0.1583 -0.3333
  141ANI     C3 2725   2.469   2.092  -0.040  0.5489  0.1957  0.6000
  141ANI     C4 2726   2.581   2.042  -0.109 -0.3012  1.1166 -1.2883
  141ANI     C5 2727   2.635   1.916  -0.070 -0.7362 -0.2252  0.0762
  141ANI     C6 2728   2.574   1.833   0.023  0.1464  0.3809 -0.4212
  141ANI     C7 2729   2.457   1.883   0.090  0.2386  0.3624  0.7797
  141ANI     H1 2730   2.256   1.943   0.282 -0.5422  1.2124  1.2361
  141ANI     H2 2731   2.099   1.993   0.206  1.0173  1.4854 -1.1416
  141ANI     H3 2732   2.191   1.850   0.143  0.6337 -0.9633  1.1741
  141ANI     H4 2733   2.426   2.187  -0.070 -0.3683 -0.7126 -1.0517
  141ANI     H5 2734   2.630   2.102  -0.185  0.9592  0.7935 -0.7437
  141ANI     H6 2735   2.716   1.878  -0.132 -0.3842  0.0075  0.3875
  141ANI     H7 2736   2.611   1.732   0.035 -0.6014  0.1082 -0.4178
  141ANI     H8 2737   2.408   1.811   0.155 -1.8962 -0.4207 -1.6051
  142ANI     C1 2738   2.670   0.945   1.293 -0.5596  0.2203 -0.2557
  142ANI     O1 2739   2.600   0.876   1.398 -0.7690  0.5981 -0.0622
  142ANI     C2 2740   2.472   0.820   1.385 -0.1851  0.0541  0.1427
  142ANI     C3 2741   2.410   0.773   1.503 -0.5621 -0.3390  0.0132
  142ANI     C4 2742   2.280   0.727   1.501  0.5867  0.2379  0.4166
  142ANI     C5 2743   2.212   0.718   1.379 -0.0597 -0.1139  0.0783
  142ANI     C6 2744   2.269   0.774   1.259  0.0871 -0.4360  0.6875
  142ANI     C7 2745   2.401   0.826   1.263 -0.5927 -0.0482  0.2129
  142ANI     H1 2746   2.642   1.050   1.281  1.8117  1.0748  1.2701
  142ANI     H2 2747   2.777   0.948   1.318 -0.2822 -0.5398 -1.3231
  142ANI     H3 2748   2.663   0.907   1.190  2.6099 -0.6416 -0.2147
  142ANI     H4 2749   2.464   0.768   1.597  1.3889 -1.1026 -1.0982
  142ANI     H5 2750   2.241   0.688   1.595  0.8855 -0.1736  0.3737
  142ANI     H6 2751   2.111   0.680   1.380  0.3234 -1.1211  0.4061
  142ANI     H7 2752   2.206   0.786   1.171 -0.2978 -1.9367  0.7416
  142ANI     H8 2753   2.440   0.880   1.177 -0.5465 -0.7486 -0.2139
  143ANI     C1 2754   0.461   2.955   3.419  0.8922  0.4625  0.6847
  143ANI     O1 2755   0.549   2.892   3.331 -1.1385  0.3615  0.1512
  143ANI     C2 2756   0.676   2.856   3.372  0.0188  0.2359  0.1666
  143ANI     C3 2757   0.721   2.880   3.509 -0.1969  0.1435 -0.0655
  143ANI     C4 2758   0.841   2.823   3.551 -0.8656  0.0620 -0.3180
  143ANI     C5 2759   0.926   2.770   3.451  0.1601 -0.9496 -0.3526
  143ANI     C6 2760   0.890   2.756   3.317 -0.3482 -0.0748 -0.0192
  143ANI     C7 2761   0.764   2.800   3.278 -0.1350 -0.6410 -0.2174
  143ANI     H1 2762   0.359   2.967   3.380  0.9968  1.4039  0.7018
  143ANI     H2 2763   0.449   2.904   3.515 -2.0547 -0.9434 -0.3767
  143ANI     H3 2764   0.491   3.059   3.432 -0.8108  1.0544 -0.0585
  143ANI     H4 2765   0.653   2.920   3.583 -0.9549 -0.9773 -0.1430
  143ANI     H5 2766   0.875   2.830   3.654 -1.2414 -1.9748 -0.0394
  143ANI     H6 2767   1.029   2.740   3.465  0.6191 -0.6424 -2.8504
  143ANI     H7 2768   0.968   2.721   3.250 -0.4985  2.8376 -1.7611
  143ANI     H8 2769   0.736   2.781   3.175  0.4966  0.4223 -0.6042
  144ANI     C1 2770   2.284   3.295   2.299  0.6261  0.1910  0.6231
  144ANI     O1 2771   2.138   3.303   2.304  0.2373 -0.2742  0.3707
  144ANI     C2 2772   2.053   3.200   2.278  0.2866  0.7161 -0.5484
  144ANI     C3 2773   2.100   3.067   2.253  0.2360  0.5688 -0.4623
  144ANI     C4 2774   2.018   2.963   2.234 -0.6750 -0.3090  0.5743
  144ANI     C5 2775   1.881   2.991   2.214  0.3309 -0.0470  0.0757
  144ANI     C6 2776   1.833   3.119   2.234 -0.7698 -0.3443 -0.2710
  144ANI     C7 2777   1.922   3.232   2.264 -0.3810 -0.2498 -0.6463
  144ANI     H1 2778   2.320   3.197   2.331 -2.4207 -1.4701 -0.8077
  144ANI     H2 2779   2.316   3.320   2.197 -0.6867 -0.1429  0.1242
  144ANI     H3 2780   2.321   3.376   2.363  1.0959 -0.2550  0.9179
  144ANI     H4 2781   2.207   3.045   2.248 -0.0444 -1.2350  1.0465
  144ANI     H5 2782   2.050   2.859   2.224  0.0033 -0.1794  1.4000
  144ANI     H6 2783   1.819   2.908   2.184  1.0406  0.2417 -2.2968
  144ANI     H7 2784   1.728   3.141   2.217 -0.0936  2.1694 -1.4563
  144ANI     H8 2785   1.883   3.332   2.278 -4.9425 -1.7828 -1.2583
  145ANI     C1 2786   0.907   2.422   0.550  0.7782 -0.5147  0.3411
  145ANI     O1 2787   0.781   2.356   0.514 -0.3594  1.2488  0.2655
  145ANI     C2 2788   0.776   2.295   0.387 -0.0885  0.0189 -0.3785
  145ANI     C3 2789   0.879   2.295   0.288 -0.4606  0.1127  0.7292
  145ANI     C4 2790   0.857   2.235   0.158  0.1524  0.3443 -0.3795
  145ANI     C5 2791   0.730   2.179   0.132 -0.5630  0.1589  0.3011
  145ANI     C6 2792   0.628   2.177   0.229 -0.3307 -0.2780  0.2032
  145ANI     C7 2793   0.655   2.236   0.352  0.5304 -0.3438  0.1536
  145ANI     H1 2794   0.901   2.446   0.656 -0.2654 -3.0855  0.9059
  145ANI     H2 2795   0.997   2.365   0.525  0.6646  0.2444 -1.9673
  145ANI     H3 2796   0.901   2.515   0.492  0.1180 -1.3912 -1.0358
  145ANI     H4 2797   0.977   2.342   0.300 -0.2360 -0.1890  0.1080
  145ANI     H5 2798   0.934   2.241   0.081  0.3696  1.7063 -0.0649
  145ANI     H6 2799   0.709   2.146   0.031  1.1295 -0.9779  0.2956
  145ANI     H7 2800   0.528   2.143   0.208  0.6164 -2.3609 -1.0967
  145ANI     H8 2801   0.570   2.247   0.418  0.3930  1.8644 -0.3312
  146ANI     C1 2802   2.214   1.035   1.521 -0.1604  0.1897  0.5450
  146ANI     O1 2803   2.232   1.179   1.535 -0.7711  0.2332  0.2459
  146ANI     C2 2804   2.358   1.235   1.537  0.3143 -0.4351  0.2070
  146ANI     C3 2805   2.475   1.152   1.537 -0.3227 -0.0828 -0.0512
  146ANI     C4 2806   2.596   1.210   1.552 -0.7225  0.8239  0.0452
  146ANI     C5 2807   2.614   1.345   1.582 -0.5403  0.0051 -0.4026
  146ANI     C6 2808   2.503   1.423   1.582  0.6488  0.8168  0.3824
  146ANI     C7 2809   2.374   1.370   1.557  0.4498  0.0970 -0.6840
  146ANI     H1 2810   2.244   0.997   1.422 -1.0701  1.5445 -0.2682
  146ANI     H2 2811   2.269   0.981   1.599  0.1437  0.2363  0.3662
  146ANI     H3 2812   2.106   1.014   1.521 -0.1952  0.0463 -2.9515
  146ANI     H4 2813   2.467   1.044   1.525 -0.7243 -0.0495 -0.1095
  146ANI     H5 2814   2.686   1.149   1.551  0.5694  2.5212  3.2309
  146ANI     H6 2815   2.710   1.395   1.581 -0.8954  0.7002 -1.3964
  146ANI     H7 2816   2.519   1.529   1.597 -1.2843  1.2623 -0.5507
  146ANI     H8 2817   2.290   1.437   1.550 -1.5950 -1.9548  2.6517
  147ANI     C1 2818   3.162   3.011   0.633  0.0607  0.1419 -0.1580
  147ANI     O1 2819   3.173   3.142   0.672 -0.0481  0.1820 -0.8408
  147ANI     C2 2820   3.090   3.237   0.621 -0.1871 -0.2363 -0.3666
  147ANI     C3 2821   2.993   3.218   0.520 -0.3419 -0.1815 -0.0012
  147ANI     C4 2822   2.906   3.320   0.489  0.0155 -0.2363 -0.4754
  147ANI     C5 2823   2.926   3.450   0.539  0.1815 -0.2457 -0.5000
  147ANI     C6 2824   3.025   3.471   0.636 -0.0837 -0.5897  0.0214
  147ANI     C7 2825   3.102   3.364   0.680 -0.7676 -0.2797  0.2954
  147ANI     H1 2826   3.214   2.948   0.706 -0.0300  0.0495 -0.1737
  147ANI     H2 2827   3.056   2.986   0.639  0.0265  0.6273  1.3675
  147ANI     H3 2828   3.207   2.994   0.534  0.4717  0.2382  0.0106
  147ANI     H4 2829   2.987   3.116   0.481 -0.5085 -1.0070  2.1321
  147ANI     H5 2830   2.840   3.304   0.404 -0.3553 -0.4846 -0.1414
  147ANI     H6 2831   2.862   3.531   0.506  0.1785 -0.1619 -0.2887
  147ANI     H7 2832   3.023   3.567   0.688 -1.7882 -0.4566 -0.2801
  147ANI     H8 2833   3.159   3.371   0.772 -0.9054  1.0866  0.2796
  148ANI     C1 2834   2.472   1.236   0.803 -0.9947 -0.4249  0.6803
  148ANI     O1 2835   2.514   1.371   0.829  0.0987 -0.3940 -0.5860
  148ANI     C2 2836   2.509   1.428   0.959 -0.0962  0.1352 -0.3045
  148ANI     C3 2837   2.527   1.565   0.964 -0.2775 -0.1636  0.8661
  148ANI     C4 2838   2.527   1.629   1.089 -0.5608 -0.2928  0.5242
  148ANI     C5 2839   2.502   1.554   1.206  0.2376  0.2600  0.5160
  148ANI     C6 2840   2.494   1.420   1.207  0.3998  0.3892  0.0445
  148ANI     C7 2841   2.487   1.359   1.080 -0.9015  0.6285 -0.8813
  148ANI     H1 2842   2.362   1.235   0.804 -1.0103  0.4190  0.1618
  148ANI     H2 2843   2.514   1.203   0.707 -0.9607 -0.6023  0.7548
  148ANI     H3 2844   2.521   1.168   0.874 -0.6134  0.0086  0.8330
  148ANI     H4 2845   2.544   1.626   0.877  2.6327 -2.2083 -0.0683
  148ANI     H5 2846   2.540   1.736   1.083  0.0526 -0.4645 -1.4655
  148ANI     H6 2847   2.486   1.610   1.297 -0.7405  1.0679 -0.1392
  148ANI     H7 2848   2.476   1.358   1.295 -0.0398  1.8325  0.9821
  148ANI     H8 2849   2.480   1.251   1.073 -1.1910  0.5870 -0.0056
  149ANI     C1 2850   2.442   0.208   2.233 -0.7606  0.2960  0.5220
  149ANI     O1 2851   2.573   0.267   2.251 -0.1809  0.0613 -0.5659
  149ANI     C2 2852   2.595   0.404   2.267  0.4911  0.8194  0.2507
  149ANI     C3 2853   2.492   0.500   2.238  0.0299  0.6836  0.5613
  149ANI     C4 2854   2.525   0.639   2.261  0.4411  0.1654  0.6690
  149ANI     C5 2855   2.657   0.670   2.307  0.5333 -0.2491 -0.0199
  149ANI     C6 2856   2.752   0.573   2.328  0.3211 -0.3485 -0.0551
  149ANI     C7 2857   2.720   0.439   2.311 -1.2914  0.3255  0.7250
  149ANI     H1 2858   2.446   0.098   2.243 -0.6352  0.0741 -1.6976
  149ANI     H2 2859   2.368   0.234   2.309 -0.5952  1.8318  0.1759
  149ANI     H3 2860   2.402   0.244   2.138  1.9526 -0.6130 -1.0314
  149ANI     H4 2861   2.398   0.463   2.198  1.8507 -2.1144 -1.2748
  149ANI     H5 2862   2.448   0.715   2.257  0.0507 -0.3018 -1.6196
  149ANI     H6 2863   2.675   0.772   2.337 -3.6164 -0.0415  2.1289
  149ANI     H7 2864   2.849   0.610   2.361 -0.7694  1.6931  0.9153
  149ANI     H8 2865   2.795   0.363   2.336  0.3004  0.7790 -2.4153
  150ANI     C1 2866   2.123   0.115   3.497 -0.0079  0.1314 -0.4477
  150ANI     O1 2867   2.108   0.039   3.378 -0.3445  0.1511  0.1720
  150ANI     C2 2868   1.979  -0.010   3.349  0.4567  0.3320 -0.2152
  150ANI     C3 2869   1.959  -0.073   3.222  0.8174 -0.1426 -0.1600
  150ANI     C4 2870   1.830  -0.121   3.188  0.6728 -0.1089  0.4838
  150ANI     C5 2871   1.721  -0.109   3.270  0.6951  0.1225  0.0276
  150ANI     C6 2872   1.743  -0.051   3.399 -0.0236  0.5593  0.4206
  150ANI     C7 2873   1.868  -0.007   3.442  0.3505 -0.1144  0.1869
  150ANI     H1 2874   2.228   0.145   3.506  0.4553 -1.1239 -1.5272
  150ANI     H2 2875   2.069   0.211   3.487  2.0793  1.5354  1.2919
  150ANI     H3 2876   2.091   0.058   3.584 -0.2014 -1.0204 -1.2680
  150ANI     H4 2877   2.036  -0.084   3.146 -0.0071 -1.0608 -0.8761
  150ANI     H5 2878   1.816  -0.165   3.090 -1.2816  3.0090 -0.7140
  150ANI     H6 2879   1.625  -0.156   3.250  2.0556 -2.7195 -0.1574
  150ANI     H7 2880   1.660  -0.042   3.468 -1.3712 -0.4199 -1.0518
  150ANI     H8 2881   1.877   0.035   3.542  0.1619  1.6042 -0.5088
  151ANI     C1 2882   1.211   1.217   0.089 -0.1494 -0.1910 -0.2745
  151ANI     O1 2883   1.080   1.258   0.134 -0.1040  0.0812  0.4472
  151ANI     C2 2884   0.963   1.184   0.104  0.3206  0.5905  0.8166
  151ANI     C3 2885   0.958   1.084   0.007  0.5341 -0.1090 -0.5882
  151ANI     C4 2886   0.843   1.002  -0.011 -0.2200 -0.8831 -0.4561
  151ANI     C5 2887   0.736   1.004   0.076  0.0433  0.2295 -0.8767
  151ANI     C6 2888   0.739   1.101   0.173  0.6220 -0.5490  0.4654
  151ANI     C7 2889   0.851   1.189   0.186 -0.0636  0.6141  0.1426
  151ANI     H1 2890   1.231   1.110   0.104 -3.1123 -0.5298  1.7966
  151ANI     H2 2891   1.215   1.239  -0.018 -0.7633 -0.2065 -0.3036
  151ANI     H3 2892   1.288   1.275   0.141  0.1811  0.9156 -1.9564
  151ANI     H4 2893   1.034   1.072  -0.070  0.9645 -4.2442  0.3669
  151ANI     H5 2894   0.843   0.929  -0.091  0.3958 -0.9934 -0.3566
  151ANI     H6 2895   0.647   0.942   0.069  0.6354 -0.9215  1.4699
  151ANI     H7 2896   0.652   1.117   0.236 -0.2475 -2.0879 -0.3275
  151ANI     H8 2897   0.844   1.264   0.264 -1.7951  3.3125 -2.4678
  152ANI     C1 2898   2.434   1.483   0.320 -0.7895  0.1148  0.2554
  152ANI     O1 2899   2.396   1.450   0.192  0.1772 -0.5215  0.3787
  152ANI     C2 2900   2.476   1.440   0.083 -0.4626 -0.5401 -0.3698
  152ANI     C3 2901   2.604   1.381   0.099 -0.3889 -0.4063 -0.1969
  152ANI     C4 2902   2.683   1.361  -0.011  0.2487 -0.2940  0.3228
  152ANI     C5 2903   2.635   1.380  -0.141 -0.6594 -0.3219 -0.2786
  152ANI     C6 2904   2.515   1.448  -0.161 -0.6236  0.6061  0.0075
  152ANI     C7 2905   2.434   1.479  -0.046  0.0139 -0.1040 -0.2510
  152ANI     H1 2906   2.488   1.578   0.327  0.4877 -0.7612  2.6852
  152ANI     H2 2907   2.344   1.485   0.383 -1.9807 -0.3287 -1.3964
  152ANI     H3 2908   2.497   1.408   0.368 -0.4283  0.3665  0.1751
  152ANI     H4 2909   2.644   1.366   0.199 -3.3416 -1.5823  0.8371
  152ANI     H5 2910   2.780   1.318   0.011  0.1598 -0.8809 -0.4044
  152ANI     H6 2911   2.693   1.347  -0.226  1.7429 -0.9198  1.5260
  152ANI     H7 2912   2.479   1.465  -0.262  2.0846  0.3848 -1.0398
  152ANI     H8 2913   2.333   1.520  -0.046  0.2579  0.5298 -1.6571
  153ANI     C1 2914   3.298   1.982   3.335  0.0906  0.4034 -0.2054
  153ANI     O1 2915   3.215   1.873   3.354  0.2495  0.2399  0.0034
  153ANI     C2 2916   3.248   1.742   3.314 -0.4748  0.1053 -0.5800
  153ANI     C3 2917   3.370   1.717   3.251  0.3271  0.0381  0.0137
  153ANI     C4 2918   3.407   1.576   3.235 -0.2608  0.2301  0.1270
  153ANI     C5 2919   3.322   1.471   3.271 -2.1734  0.2658 -0.0380
  153ANI     C6 2920   3.200   1.506   3.322 -0.3699 -0.0776 -0.5811
  153ANI     C7 2921   3.159   1.642   3.351  0.0957 -0.0269  0.4679
  153ANI     H1 2922   3.332   1.997   3.232 -0.2366  0.2122 -0.3398
  153ANI     H2 2923   3.251   2.077   3.362  0.6926  0.6352  0.0347
  153ANI     H3 2924   3.380   1.975   3.408  1.7202  3.9799 -1.5955
  153ANI     H4 2925   3.434   1.799   3.220  1.4502  0.4632  3.2923
  153ANI     H5 2926   3.509   1.553   3.203 -0.0761  0.8117  0.2968
  153ANI     H6 2927   3.367   1.374   3.257 -0.4835  1.1196 -0.6713
  153ANI     H7 2928   3.133   1.425   3.348 -0.0098  0.4348  2.1121
  153ANI     H8 2929   3.067   1.657   3.405 -0.1513 -0.5510  0.1977
  154ANI     C1 2930   2.354   0.405   1.514  0.2942 -0.4424  0.6662
  154ANI     O1 2931   2.445   0.293   1.533  0.1033  0.1915  0.0527
  154ANI     C2 2932   2.396   0.161   1.552 -0.5098 -0.2229 -0.2085
  154ANI     C3 2933   2.485   0.050   1.568 -0.0311  0.0271  0.2989
  154ANI     C4 2934   2.432  -0.080   1.588  0.1881  0.3224 -0.8368
  154ANI     C5 2935   2.290  -0.103   1.583  0.8190  0.1080  0.5019
  154ANI     C6 2936   2.207   0.003   1.576  0.1581  0.5734  0.5606
  154ANI     C7 2937   2.259   0.132   1.567  0.3375  0.2978 -0.3749
  154ANI     H1 2938   2.289   0.363   1.436  1.3063 -1.2660  0.2505
  154ANI     H2 2939   2.305   0.425   1.610  0.6829  0.0474  0.7615
  154ANI     H3 2940   2.410   0.488   1.470  2.3252 -1.3342  1.5309
  154ANI     H4 2941   2.594   0.059   1.566 -0.1787  1.7795 -0.7983
  154ANI     H5 2942   2.503  -0.162   1.600 -1.0166 -0.8521 -1.5004
  154ANI     H6 2943   2.255  -0.205   1.601  0.3594  0.0321 -0.8141
  154ANI     H7 2944   2.102  -0.021   1.565  0.4584  0.2067 -1.8020
  154ANI     H8 2945   2.189   0.215   1.577 -0.1857 -0.4217  2.2488
  155ANI     C1 2946   2.699   2.944   1.278 -0.3616  0.4632 -0.6496
  155ANI     O1 2947   2.630   2.974   1.391  0.3047  0.5241 -0.5293
  155ANI     C2 2948   2.496   2.928   1.392 -0.4037  0.4330 -0.0124
  155ANI     C3 2949   2.423   2.882   1.279 -0.1675  0.9356  0.1019
  155ANI     C4 2950   2.282   2.854   1.294 -0.5308  0.5594 -0.3414
  155ANI     C5 2951   2.220   2.876   1.411 -0.4859 -0.2636  0.2633
  155ANI     C6 2952   2.289   2.898   1.522 -0.3916 -0.3252 -0.4493
  155ANI     C7 2953   2.426   2.928   1.519 -1.1101  0.2965 -0.2419
  155ANI     H1 2954   2.720   2.840   1.250  1.9735  0.4793  0.8764
  155ANI     H2 2955   2.661   2.988   1.185 -1.1721  0.9584 -0.0873
  155ANI     H3 2956   2.796   2.995   1.288  1.1711 -2.3688 -0.5474
  155ANI     H4 2957   2.465   2.883   1.179  1.1684  0.4262  0.6472
  155ANI     H5 2958   2.221   2.818   1.211 -0.4607 -0.7494  0.1614
  155ANI     H6 2959   2.113   2.859   1.405 -0.3059 -1.4883  0.2710
  155ANI     H7 2960   2.236   2.901   1.616 -0.8271 -1.6524 -0.6421
  155ANI     H8 2961   2.468   2.961   1.614  1.1919  0.3539 -1.2321
  156ANI     C1 2962   1.153  -0.010   1.572 -0.0024 -0.1528 -0.0504
  156ANI     O1 2963   1.035  -0.096   1.559 -0.0583  0.7245  0.1629
  156ANI     C2 2964   0.911  -0.050   1.566 -0.2975 -0.3794  0.0505
  156ANI     C3 2965   0.882   0.089   1.552 -0.5570 -0.0585 -0.5278
  156ANI     C4 2966   0.739   0.126   1.543  0.6075 -0.1089  0.6873
  156ANI     C5 2967   0.642   0.026   1.555 -0.0819  0.6287  0.1978
  156ANI     C6 2968   0.680  -0.104   1.567  0.1105  0.3594 -0.0223
  156ANI     C7 2969   0.814  -0.144   1.571 -0.5096 -0.5339 -0.0677
  156ANI     H1 2970   1.252  -0.056   1.581  0.0885  0.4835  2.4295
  156ANI     H2 2971   1.159   0.062   1.489 -1.2874 -0.6956 -0.6390
  156ANI     H3 2972   1.142   0.052   1.662 -0.6201 -0.0536 -0.1917
  156ANI     H4 2973   0.962   0.162   1.550 -0.3875 -0.2632 -1.1847
  156ANI     H5 2974   0.715   0.229   1.520  2.7113  0.2139 -0.1174
  156ANI     H6 2975   0.535   0.049   1.558 -0.3835 -0.8183  1.2231
  156ANI     H7 2976   0.599  -0.174   1.550 -0.4076  0.3045  2.5348
  156ANI     H8 2977   0.839  -0.249   1.555 -0.0408 -0.5510  0.7405
  157ANI     C1 2978   1.602   1.484   1.511 -0.0159 -0.6921 -0.8299
  157ANI     O1 2979   1.572   1.348   1.560 -0.3944  0.3571  0.0022
  157ANI     C2 2980   1.665   1.244   1.563  0.7089 -0.9050  0.0947
  157ANI     C3 2981   1.618   1.112   1.576  0.3917 -0.8350  1.1928
  157ANI     C4 2982   1.706   1.008   1.557  0.0954 -0.7910  0.3537
  157ANI     C5 2983   1.844   1.031   1.555 -0.5612 -0.2837  0.6601
  157ANI     C6 2984   1.889   1.166   1.551 -0.8044 -0.2446  0.2478
  157ANI     C7 2985   1.798   1.270   1.549 -0.1363 -0.1933 -0.9893
  157ANI     H1 2986   1.653   1.545   1.586 -0.2520 -2.3995  0.7654
  157ANI     H2 2987   1.655   1.468   1.416  0.1573 -0.7921 -0.7146
  157ANI     H3 2988   1.513   1.538   1.475 -1.6857 -1.7267  1.6182
  157ANI     H4 2989   1.511   1.094   1.587 -0.3241  2.1735 -0.2409
  157ANI     H5 2990   1.670   0.906   1.559 -0.1546 -0.7250 -0.6460
  157ANI     H6 2991   1.910   0.947   1.542 -0.3119  0.3093 -2.3809
  157ANI     H7 2992   1.994   1.190   1.557 -1.1868  1.8644 -0.7930
  157ANI     H8 2993   1.842   1.369   1.550 -1.1697  0.2864  2.1081
  158ANI     C1 2994   1.726   3.421   1.548 -0.6618 -0.1358  0.2136
  158ANI     O1 2995   1.749   3.558   1.579 -0.3832 -0.1612  0.6120
  158ANI     C2 2996   1.843   3.631   1.509  0.7364  0.4799  0.0130
  158ANI     C3 2997   1.911   3.578   1.401 -0.2988  0.8567 -0.0228
  158ANI     C4 2998   2.004   3.664   1.332 -0.0451  0.1735 -0.0504
  158ANI     C5 2999   2.037   3.791   1.378  0.2729 -0.4913  0.1076
  158ANI     C6 3000   1.969   3.847   1.485  0.3806  0.1083  0.4267
  158ANI     C7 3001   1.871   3.762   1.549 -0.1191  0.2733 -0.4044
  158ANI     H1 3002   1.672   3.383   1.636  1.3215  0.8095  1.8822
  158ANI     H2 3003   1.653   3.401   1.469  0.0675  0.8024 -0.7055
  158ANI     H3 3004   1.808   3.350   1.533 -0.7890 -0.6952  2.0456
  158ANI     H4 3005   1.885   3.478   1.367  0.9274  0.9068 -1.1663
  158ANI     H5 3006   2.055   3.622   1.246 -3.1276  0.5383 -2.1600
  158ANI     H6 3007   2.110   3.855   1.328  0.2161 -0.2065  0.3896
  158ANI     H7 3008   1.994   3.948   1.513  1.0817  0.1960 -0.4917
  158ANI     H8 3009   1.819   3.794   1.639  0.4168  1.9227 -0.6554
  159ANI     C1 3010   0.291   1.877   2.620  0.2177  0.0155  0.1674
  159ANI     O1 3011   0.421   1.922   2.575 -0.5315 -0.2098 -0.0241
  159ANI     C2 3012   0.478   2.039   2.624 -0.4926  0.3640  0.3282
  159ANI     C3 3013   0.615   2.066   2.591  1.1548  0.2291 -0.2888
  159ANI     C4 3014   0.674   2.177   2.650  0.3188  0.2026  0.1093
  159ANI     C5 3015   0.595   2.262   2.738  0.1465 -0.2166 -0.4736
  159ANI     C6 3016   0.462   2.230   2.767 -0.3087 -0.1666 -0.1028
  159ANI     C7 3017   0.403   2.120   2.712 -0.0285  0.2260 -0.6108
  159ANI     H1 3018   0.282   1.774   2.583 -2.0478  0.4540 -0.6051
  159ANI     H2 3019   0.278   1.878   2.729 -0.8685 -0.5684  0.0557
  159ANI     H3 3020   0.210   1.939   2.579  2.2266  0.0205 -4.0686
  159ANI     H4 3021   0.668   1.995   2.528  2.1206 -1.3183  2.1612
  159ANI     H5 3022   0.772   2.202   2.610  1.4738 -1.1774  2.0129
  159ANI     H6 3023   0.637   2.356   2.773 -1.5967 -0.0563  1.2552
  159ANI     H7 3024   0.407   2.292   2.837 -1.0463 -0.3613 -0.5138
  159ANI     H8 3025   0.305   2.087   2.744 -0.1640  0.8920 -0.3264
  160ANI     C1 3026   0.476   1.473   1.510 -0.2611 -0.2507  0.1221
  160ANI     O1 3027   0.382   1.560   1.574 -0.0932  0.7259 -0.1190
  160ANI     C2 3028   0.245   1.532   1.565 -0.1347  0.4329 -0.5288
  160ANI     C3 3029   0.197   1.406   1.542 -0.1621  0.6340 -0.3121
  160ANI     C4 3030   0.055   1.403   1.544  0.0492  0.8884 -0.0164
  160ANI     C5 3031  -0.033   1.510   1.548 -0.3483  0.1133 -0.0030
  160ANI     C6 3032   0.024   1.638   1.568 -0.4373 -0.6261  0.1592
  160ANI     C7 3033   0.164   1.648   1.574 -0.2652  0.1346  0.4740
  160ANI     H1 3034   0.472   1.373   1.556 -1.1018  0.0993  0.8298
  160ANI     H2 3035   0.449   1.463   1.405  0.1191  1.6605 -0.1783
  160ANI     H3 3036   0.580   1.506   1.519  0.1509 -1.1446 -1.3676
  160ANI     H4 3037   0.263   1.320   1.528 -1.4011 -0.1819 -1.2630
  160ANI     H5 3038   0.011   1.305   1.528  2.8661 -0.4003 -0.2406
  160ANI     H6 3039  -0.141   1.499   1.541 -0.2557 -0.2123 -1.0056
  160ANI     H7 3040  -0.040   1.725   1.574 -1.3586 -1.3076  0.3687
  160ANI     H8 3041   0.207   1.745   1.596 -0.4175 -0.1685  2.1636
  161ANI     C1 3042   1.287   2.521   1.222  0.7579  0.2470 -0.1947
  161ANI     O1 3043   1.275   2.489   1.078 -0.2231 -0.2057 -0.0420
  161ANI     C2 3044   1.383   2.500   0.995  0.1064 -0.6841  0.6712
  161ANI     C3 3045   1.369   2.443   0.871 -0.7419  0.0106 -0.6418
  161ANI     C4 3046   1.475   2.443   0.783  0.1926 -1.3339 -0.4885
  161ANI     C5 3047   1.596   2.505   0.816  0.0774 -0.2308 -0.1605
  161ANI     C6 3048   1.610   2.573   0.940 -0.3993 -0.1568 -0.2937
  161ANI     C7 3049   1.503   2.571   1.031  0.8170  0.8812 -0.6616
  161ANI     H1 3050   1.190   2.503   1.269  1.0274  0.5841  0.4974
  161ANI     H2 3051   1.366   2.464   1.273  1.3105  2.5090  1.5676
  161ANI     H3 3052   1.320   2.625   1.235  0.1797  0.2154  1.6710
  161ANI     H4 3053   1.276   2.392   0.848 -0.7381  0.2334 -1.1736
  161ANI     H5 3054   1.474   2.405   0.681 -2.2753  0.0415 -0.9970
  161ANI     H6 3055   1.679   2.513   0.747 -0.2979  2.6892 -0.3696
  161ANI     H7 3056   1.704   2.626   0.952 -0.0021 -0.8302 -0.4312
  161ANI     H8 3057   1.516   2.630   1.121 -0.4549  2.1846 -1.3288
  162ANI     C1 3058   1.177   3.310   2.619  0.2631 -0.5538  0.2880
  162ANI     O1 3059   1.043   3.360   2.590 -0.3742 -0.4250  0.4129
  162ANI     C2 3060   1.022   3.489   2.562  0.0003 -0.1961  0.9075
  162ANI     C3 3061   1.126   3.585   2.547 -0.5527 -0.0813  0.4837
  162ANI     C4 3062   1.098   3.719   2.510 -0.3097 -0.3417  0.1739
  162ANI     C5 3063   0.964   3.758   2.483  0.5874  0.5035  0.0504
  162ANI     C6 3064   0.856   3.667   2.493  0.1567 -0.5634  0.0716
  162ANI     C7 3065   0.887   3.532   2.537 -0.2247 -0.1418 -0.2510
  162ANI     H1 3066   1.243   3.308   2.532 -0.2555 -1.7307 -0.0832
  162ANI     H2 3067   1.236   3.373   2.687 -0.0019 -0.3204  0.3034
  162ANI     H3 3068   1.170   3.209   2.662  3.0223 -0.3719  1.2664
  162ANI     H4 3069   1.229   3.553   2.551 -0.7880 -1.3437 -2.3769
  162ANI     H5 3070   1.179   3.791   2.503 -0.9056  0.8070  3.9840
  162ANI     H6 3071   0.941   3.860   2.454 -0.4466  0.5728  1.0671
  162ANI     H7 3072   0.756   3.705   2.477  0.8734  0.6339 -1.7827
  162ANI     H8 3073   0.814   3.453   2.546  0.1035 -0.3538  0.6156
  163ANI     C1 3074   0.113   2.855   2.237 -0.0427  0.4373 -0.2971
  163ANI     O1 3075   0.198   2.742   2.250 -1.1543  0.2265  0.0733
  163ANI     C2 3076   0.333   2.754   2.257  0.1461  0.4966  0.0854
  163ANI     C3 3077   0.402   2.648   2.313 -0.8501  0.4660  0.3184
  163ANI     C4 3078   0.541   2.654   2.339  0.1967  0.0511  0.1872
  163ANI     C5 3079   0.610   2.759   2.284  0.3498  0.6224 -0.1568
  163ANI     C6 3080   0.551   2.878   2.235  0.0226 -0.3395  0.0809
  163ANI     C7 3081   0.404   2.874   2.231 -0.2473 -0.1027  0.9906
  163ANI     H1 3082   0.139   2.921   2.153 -0.5216  0.9228 -0.0645
  163ANI     H2 3083   0.010   2.820   2.225 -0.2354  1.5797 -2.1962
  163ANI     H3 3084   0.111   2.907   2.334 -0.1937 -2.2736  1.1999
  163ANI     H4 3085   0.338   2.562   2.330 -0.2416  0.1026  0.8244
  163ANI     H5 3086   0.597   2.572   2.383  2.2119  0.9880 -0.5557
  163ANI     H6 3087   0.718   2.765   2.288  0.2291  2.1979  1.2052
  163ANI     H7 3088   0.602   2.968   2.204 -0.7669  0.4551  1.0487
  163ANI     H8 3089   0.350   2.959   2.192  0.5724 -0.8119 -1.8146
  164ANI     C1 3090   1.934   1.105   2.249  0.0194  0.4118 -0.5522
  164ANI     O1 3091   1.797   1.151   2.245  0.2697  0.4310 -0.1026
  164ANI     C2 3092   1.691   1.063   2.223  0.3797 -0.1191  0.4975
  164ANI     C3 3093   1.709   0.924   2.232 -0.1195 -0.7657  0.1375
  164ANI     C4 3094   1.590   0.841   2.228 -0.3458 -0.4923  0.5519
  164ANI     C5 3095   1.462   0.892   2.222 -0.3318  0.6926 -0.1656
  164ANI     C6 3096   1.445   1.033   2.217 -0.8331  0.5745  0.0921
  164ANI     C7 3097   1.562   1.116   2.217 -0.6998  0.1714 -0.4631
  164ANI     H1 3098   1.955   1.035   2.331  0.7763 -0.3071 -1.3557
  164ANI     H2 3099   1.964   1.055   2.156 -1.1119 -0.6244 -0.3751
  164ANI     H3 3100   2.009   1.183   2.263  0.7621 -0.4597  0.4398
  164ANI     H4 3101   1.804   0.872   2.240  0.0638 -0.3818  0.4350
  164ANI     H5 3102   1.609   0.734   2.229  0.6365 -0.3537 -0.9187
  164ANI     H6 3103   1.375   0.827   2.222  0.8982 -0.9749 -0.6571
  164ANI     H7 3104   1.344   1.073   2.212 -0.9826  0.2302  0.3663
  164ANI     H8 3105   1.543   1.222   2.229 -2.8009 -0.2290  0.0598
  165ANI     C1 3106   0.614   0.382   3.457  0.1720 -0.3409  0.0865
  165ANI     O1 3107   0.487   0.451   3.469  0.6333  0.5026 -0.7893
  165ANI     C2 3108   0.480   0.584   3.511 -0.0669 -0.2438 -0.8393
  165ANI     C3 3109   0.354   0.631   3.538  0.0448  0.6294 -0.0845
  165ANI     C4 3110   0.344   0.764   3.580  0.4900  0.0702  0.0350
  165ANI     C5 3111   0.456   0.842   3.606  0.1832 -0.5957  0.2239
  165ANI     C6 3112   0.587   0.792   3.590  0.4815 -0.6067 -0.5752
  165ANI     C7 3113   0.595   0.658   3.537  0.0538  1.0486  0.7003
  165ANI     H1 3114   0.594   0.278   3.431 -1.1992  0.1459 -0.8288
  165ANI     H2 3115   0.683   0.427   3.385  0.8410 -1.3034  0.1121
  165ANI     H3 3116   0.665   0.391   3.554 -3.7573  0.3597  2.1999
  165ANI     H4 3117   0.264   0.571   3.528  0.2947 -0.2297  2.4980
  165ANI     H5 3118   0.249   0.812   3.601 -0.4953 -0.4100 -3.0996
  165ANI     H6 3119   0.450   0.942   3.648  1.0681 -0.0124 -1.0143
  165ANI     H7 3120   0.675   0.845   3.626 -0.0727 -1.0527  1.4705
  165ANI     H8 3121   0.692   0.615   3.515 -0.9993 -0.6144 -0.7714
  166ANI     C1 3122   0.250   1.167   0.430 -0.2816  0.5734 -0.8866
  166ANI     O1 3123   0.355   1.064   0.422 -0.3106  0.4975  0.2947
  166ANI     C2 3124   0.349   0.953   0.344  0.2668  0.6597 -0.5047
  166ANI     C3 3125   0.408   0.837   0.386 -0.5988  0.1658  0.1017
  166ANI     C4 3126   0.408   0.719   0.312  0.0174 -0.2137  0.3971
  166ANI     C5 3127   0.347   0.727   0.183 -0.6571  0.4813 -0.2628
  166ANI     C6 3128   0.290   0.843   0.142  0.2802  0.6696  0.3787
  166ANI     C7 3129   0.276   0.952   0.224 -0.4761 -0.3938 -0.2650
  166ANI     H1 3130   0.250   1.212   0.530 -0.0554  1.0216 -1.0852
  166ANI     H2 3131   0.248   1.239   0.347 -1.3007 -0.9198 -2.1807
  166ANI     H3 3132   0.151   1.121   0.439  0.8808 -2.0775 -1.2936
  166ANI     H4 3133   0.455   0.833   0.483  0.2810  0.3584 -0.3141
  166ANI     H5 3134   0.437   0.625   0.357 -1.1266 -1.1225 -0.7632
  166ANI     H6 3135   0.341   0.639   0.119  2.0505 -0.1474  0.2508
  166ANI     H7 3136   0.242   0.834   0.044 -0.1134  0.2423  0.6053
  166ANI     H8 3137   0.207   1.029   0.188  1.1367  0.3208 -1.9011
  167ANI     C1 3138   3.014   1.563   2.262  0.1012 -0.1496 -0.4964
  167ANI     O1 3139   2.868   1.555   2.254  0.4442 -0.2653 -0.3037
  167ANI     C2 3140   2.799   1.453   2.321 -0.7062 -0.1718  0.6907
  167ANI     C3 3141   2.660   1.444   2.305  0.2091 -0.4782 -0.7132
  167ANI     C4 3142   2.590   1.333   2.353  0.3460  0.1628  0.4899
  167ANI     C5 3143   2.649   1.240   2.433  0.0076  0.4612  0.2669
  167ANI     C6 3144   2.783   1.265   2.461  0.5152  0.0256 -0.0944
  167ANI     C7 3145   2.865   1.361   2.400  0.7019  0.0136 -0.0008
  167ANI     H1 3146   3.060   1.644   2.203 -1.8881  0.8770 -0.6909
  167ANI     H2 3147   3.051   1.576   2.364 -0.0929  0.5354 -0.5107
  167ANI     H3 3148   3.065   1.474   2.223  0.8680 -0.1841  0.5765
  167ANI     H4 3149   2.614   1.521   2.245  0.5594  1.0045  0.8965
  167ANI     H5 3150   2.485   1.317   2.331  1.5032 -2.3430 -3.7512
  167ANI     H6 3151   2.599   1.153   2.476 -0.5378 -0.5744 -2.3577
  167ANI     H7 3152   2.829   1.201   2.537 -1.2045 -0.1206  0.8561
  167ANI     H8 3153   2.964   1.375   2.441 -0.7280  0.3007  3.5739
  168ANI     C1 3154   1.645   1.389   3.455  0.3463 -0.2583  0.2554
  168ANI     O1 3155   1.509   1.345   3.464 -0.2961 -0.2344 -0.1673
  168ANI     C2 3156   1.411   1.424   3.518  0.2056 -0.2895  0.1268
  168ANI     C3 3157   1.430   1.568   3.547  0.3041  0.3369 -0.1124
  168ANI     C4 3158   1.343   1.648   3.620 -0.5369 -1.2424 -0.0785
  168ANI     C5 3159   1.225   1.584   3.665 -0.2978  0.3237 -0.3040
  168ANI     C6 3160   1.204   1.453   3.635 -0.1273 -0.0881 -0.3363
  168ANI     C7 3161   1.294   1.371   3.560  0.5004 -0.2847  0.6822
  168ANI     H1 3162   1.717   1.310   3.430  0.7614  0.2157 -0.0626
  168ANI     H2 3163   1.662   1.467   3.380  0.3208 -1.3778 -0.9301
  168ANI     H3 3164   1.680   1.442   3.544 -0.6318  0.6904  0.0807
  168ANI     H4 3165   1.522   1.613   3.511  1.2102 -0.9872  0.5230
  168ANI     H5 3166   1.369   1.749   3.649  1.2488 -1.6515 -0.2244
  168ANI     H6 3167   1.156   1.642   3.727 -0.1595  0.5966 -0.4023
  168ANI     H7 3168   1.110   1.415   3.673  0.2012 -0.1881  0.3853
  168ANI     H8 3169   1.267   1.269   3.536  0.9735  0.0287 -1.2703
  169ANI     C1 3170   1.618   0.533   2.589  0.8202 -0.3170  0.3859
  169ANI     O1 3171   1.553   0.526   2.458  0.3623 -0.3919 -0.3203
  169ANI     C2 3172   1.422   0.553   2.433 -0.3380 -0.4583 -0.4104
  169ANI     C3 3173   1.372   0.521   2.309  0.0432  0.2940 -0.4170
  169ANI     C4 3174   1.234   0.543   2.281  0.6998 -0.3900 -0.2304
  169ANI     C5 3175   1.152   0.604   2.378 -1.1020 -0.3933 -0.7068
  169ANI     C6 3176   1.206   0.634   2.502  0.1786  0.3395 -0.2246
  169ANI     C7 3177   1.343   0.608   2.533 -0.4398 -0.3012  0.4109
  169ANI     H1 3178   1.634   0.639   2.611  1.7393  0.1532 -2.4021
  169ANI     H2 3179   1.550   0.489   2.663 -3.1304  0.6540 -2.4510
  169ANI     H3 3180   1.713   0.478   2.591 -0.3040 -2.2848  0.5005
  169ANI     H4 3181   1.436   0.475   2.234  0.9477 -0.3348  0.7118
  169ANI     H5 3182   1.197   0.513   2.183  1.1275 -1.7079 -0.0058
  169ANI     H6 3183   1.049   0.633   2.359 -0.8825 -0.2682 -1.7263
  169ANI     H7 3184   1.146   0.676   2.582  1.1116  0.4250  0.4361
  169ANI     H8 3185   1.373   0.617   2.637 -2.4272 -1.5751  1.1189
  170ANI     C1 3186   0.313   3.148   2.393  0.3235  0.0188 -0.0057
  170ANI     O1 3187   0.206   3.179   2.300  0.0827 -0.4240 -0.8122
  170ANI     C2 3188   0.171   3.308   2.278  0.2750  0.1136  0.8223
  170ANI     C3 3189   0.258   3.412   2.298  0.3245 -0.5646 -0.0518
  170ANI     C4 3190   0.223   3.544   2.276  0.9915  0.1856 -0.0389
  170ANI     C5 3191   0.095   3.576   2.225 -0.5297  0.2636 -0.2536
  170ANI     C6 3192   0.003   3.468   2.211  0.3090 -0.1797  0.0713
  170ANI     C7 3193   0.043   3.339   2.237 -0.5074  0.6382 -0.3677
  170ANI     H1 3194   0.297   3.208   2.483 -0.8618  0.1610 -0.3151
  170ANI     H2 3195   0.310   3.042   2.422  0.9008 -0.2768 -0.9988
  170ANI     H3 3196   0.412   3.168   2.350  0.2267 -0.6403 -0.5461
  170ANI     H4 3197   0.358   3.392   2.336  1.3589 -0.2017 -2.4990
  170ANI     H5 3198   0.298   3.622   2.285  0.8007  0.3906 -0.2422
  170ANI     H6 3199   0.059   3.678   2.214 -0.2452  0.6442  2.1103
  170ANI     H7 3200  -0.098   3.494   2.182  0.7190  0.1987 -1.0381
  170ANI     H8 3201  -0.023   3.255   2.216 -0.5400  0.7134 -0.5597
  171ANI     C1 3202   0.963   0.530   3.100  0.4969 -0.5651 -0.2727
  171ANI     O1 3203   0.989   0.674   3.099 -0.0719 -0.0513  0.0515
  171ANI     C2 3204   1.034   0.743   3.206 -0.4562 -0.3040  0.8402
  171ANI     C3 3205   1.109   0.680   3.307 -0.0917  0.6632 -0.3665
  171ANI     C4 3206   1.142   0.751   3.424 -0.1996  0.1312  0.3397
  171ANI     C5 3207   1.094   0.876   3.444 -0.2297 -0.4305 -0.2681
  171ANI     C6 3208   1.021   0.937   3.334 -0.1460  0.7649 -0.9072
  171ANI     C7 3209   0.993   0.866   3.215  0.1259  0.0952 -0.4842
  171ANI     H1 3210   0.927   0.496   3.002  0.7424  1.4312 -1.0778
  171ANI     H2 3211   1.053   0.471   3.120  1.3571  0.4997 -0.9037
  171ANI     H3 3212   0.884   0.503   3.171  0.4044 -0.5905 -0.3849
  171ANI     H4 3213   1.145   0.578   3.303 -2.0510 -0.2519  2.9418
  171ANI     H5 3214   1.215   0.707   3.491 -0.0307 -1.4278 -0.8445
  171ANI     H6 3215   1.124   0.943   3.524  0.4944 -0.5530 -0.4330
  171ANI     H7 3216   1.000   1.042   3.352 -0.9148  0.2325  1.5158
  171ANI     H8 3217   0.934   0.915   3.139  1.5304  1.2650 -0.8378
  172ANI     C1 3218   2.628   0.113   3.294 -0.3819  0.2316  0.9499
  172ANI     O1 3219   2.752   0.181   3.250  0.1547 -0.5363  0.0841
  172ANI     C2 3220   2.842   0.130   3.160  0.0680 -0.3077 -0.3519
  172ANI     C3 3221   2.974   0.186   3.167 -0.4893  0.5669  0.6832
  172ANI     C4 3222   3.066   0.138   3.077  0.0772 -0.4064  0.1641
  172ANI     C5 3223   3.038   0.031   2.982 -0.5384  0.2769  0.1698
  172ANI     C6 3224   2.908  -0.030   2.981 -0.9764  1.2116  0.1352
  172ANI     C7 3225   2.809   0.020   3.069  0.4992 -0.0020 -0.1020
  172ANI     H1 3226   2.642   0.005   3.304  0.1822  0.3650  1.6302
  172ANI     H2 3227   2.592   0.145   3.393 -0.2621  1.7506  0.5201
  172ANI     H3 3228   2.543   0.117   3.225 -0.4699  1.1292  1.1020
  172ANI     H4 3229   3.006   0.263   3.237  2.8942  0.9775 -1.1984
  172ANI     H5 3230   3.165   0.180   3.057 -0.7919  0.0012 -3.5757
  172ANI     H6 3231   3.111   0.002   2.908 -1.3160 -1.3808  0.0226
  172ANI     H7 3232   2.883  -0.104   2.906 -1.2817  1.0106  0.4313
  172ANI     H8 3233   2.704  -0.009   3.064  0.0694  1.1416  1.7298
  173ANI     C1 3234   1.731   1.847   1.281 -0.1276  0.1429 -0.7300
  173ANI     O1 3235   1.842   1.760   1.312 -0.7544  0.0099 -0.4512
  173ANI     C2 3236   1.949   1.735   1.229  0.2732  0.3636  0.2454
  173ANI     C3 3237   1.966   1.791   1.098  0.7603 -0.0973 -0.9174
  173ANI     C4 3238   2.084   1.760   1.020 -0.3732  0.2125 -0.4580
  173ANI     C5 3239   2.185   1.685   1.080  0.4913 -0.3094  0.1131
  173ANI     C6 3240   2.164   1.628   1.200  0.4017 -0.3189  0.0050
  173ANI     C7 3241   2.052   1.653   1.276  0.1992 -0.3310  0.1952
  173ANI     H1 3242   1.647   1.836   1.350  0.6007  0.4664  0.2279
  173ANI     H2 3243   1.765   1.951   1.273  0.8296 -0.0896  0.2221
  173ANI     H3 3244   1.685   1.815   1.187 -0.4557  0.4733 -0.6825
  173ANI     H4 3245   1.889   1.859   1.061 -1.2207 -0.1092  3.0052
  173ANI     H5 3246   2.094   1.790   0.917 -0.5335 -1.5799 -1.0169
  173ANI     H6 3247   2.275   1.659   1.025 -0.7106  1.7895 -2.9446
  173ANI     H7 3248   2.234   1.554   1.239 -1.8629 -2.3496  0.3319
  173ANI     H8 3249   2.024   1.599   1.366 -0.8763  0.9403  0.6332
  174ANI     C1 3250   2.869   1.937   3.293 -0.0043  0.3671  0.3581
  174ANI     O1 3251   2.804   1.949   3.165  0.5630 -0.2525 -0.0381
  174ANI     C2 3252   2.666   1.950   3.158  0.3572  0.6839  0.5478
  174ANI     C3 3253   2.585   1.954   3.266  0.2273  0.1452  0.4999
  174ANI     C4 3254   2.439   1.958   3.257 -0.8892 -0.1272  0.1286
  174ANI     C5 3255   2.387   1.955   3.130  0.2569 -0.4863  0.7533
  174ANI     C6 3256   2.474   1.962   3.018  0.3128 -0.1605  0.1223
  174ANI     C7 3257   2.614   1.962   3.033  0.3171 -0.1961 -0.1181
  174ANI     H1 3258   2.834   1.840   3.329  1.8337 -1.3353 -2.2677
  174ANI     H2 3259   2.978   1.936   3.278 -0.1628  1.5598 -0.9889
  174ANI     H3 3260   2.844   2.025   3.353  0.5562  0.7238  0.0757
  174ANI     H4 3261   2.629   1.949   3.365 -2.9522  0.9944  2.0254
  174ANI     H5 3262   2.379   1.953   3.347 -1.2023  1.0117 -0.0138
  174ANI     H6 3263   2.280   1.949   3.109  0.3323  1.9822 -0.4929
  174ANI     H7 3264   2.435   1.966   2.917 -0.6873 -2.6523  0.3826
  174ANI     H8 3265   2.683   1.961   2.949 -0.8889 -1.9685 -1.1124
  175ANI     C1 3266   0.413   2.415   3.192  0.1175  0.2603 -0.0710
  175ANI     O1 3267   0.504   2.507   3.132  0.0927  0.7380 -0.9630
  175ANI     C2 3268   0.633   2.465   3.081 -0.2167 -0.0915  0.5364
  175ANI     C3 3269   0.678   2.327   3.080  0.1829  0.0251 -0.4693
  175ANI     C4 3270   0.809   2.292   3.034  0.1527 -0.3291  0.3800
  175ANI     C5 3271   0.894   2.394   2.999  0.3065 -0.1199 -0.0127
  175ANI     C6 3272   0.846   2.526   2.991  0.3964 -0.7003 -0.1760
  175ANI     C7 3273   0.716   2.560   3.029  0.3925  0.3551 -0.0997
  175ANI     H1 3274   0.327   2.468   3.234  0.4105  1.7260 -1.2819
  175ANI     H2 3275   0.393   2.336   3.119 -0.1803  0.1355  0.1447
  175ANI     H3 3276   0.471   2.362   3.269  0.3161  0.2350 -0.2365
  175ANI     H4 3277   0.606   2.251   3.107 -0.2618  0.0218 -1.6227
  175ANI     H5 3278   0.854   2.194   3.044  1.0059  0.0441  0.1506
  175ANI     H6 3279   0.996   2.367   2.971  0.8275  2.3091 -0.6027
  175ANI     H7 3280   0.908   2.608   2.957 -0.0389  0.1476  1.0133
  175ANI     H8 3281   0.693   2.666   3.019 -2.0310  0.1823  2.8584
  176ANI     C1 3282   1.000   3.294   2.238  0.7426  0.5040  0.4348
  176ANI     O1 3283   1.143   3.278   2.215 -0.4811 -0.0670  0.6750
  176ANI     C2 3284   1.236   3.375   2.205 -0.2624  0.4668 -0.6507
  176ANI     C3 3285   1.205   3.511   2.219 -0.1485  0.0438 -1.1030
  176ANI     C4 3286   1.297   3.613   2.245 -0.4634 -0.2285 -0.2590
  176ANI     C5 3287   1.425   3.580   2.242  0.0863  0.8673  0.3557
  176ANI     C6 3288   1.467   3.445   2.216  0.0156  0.1022 -0.0625
  176ANI     C7 3289   1.371   3.340   2.204  0.0707  0.0350  0.4690
  176ANI     H1 3290   0.988   3.324   2.343 -0.6561 -1.2109  0.7870
  176ANI     H2 3291   0.966   3.369   2.166  1.0952 -1.8624 -2.2808
  176ANI     H3 3292   0.945   3.200   2.224  0.9816  0.3959  0.2198
  176ANI     H4 3293   1.103   3.546   2.213 -0.4150 -0.3503  0.7370
  176ANI     H5 3294   1.263   3.715   2.257 -2.4175 -0.9067  0.1403
  176ANI     H6 3295   1.505   3.654   2.250  1.5666 -0.6484 -0.2124
  176ANI     H7 3296   1.573   3.430   2.196 -0.1502  0.7280 -1.4836
  176ANI     H8 3297   1.404   3.241   2.176  0.8944 -0.3918  2.9273
  177ANI     C1 3298   2.196   0.430   2.518  0.0038  0.1023 -0.3696
  177ANI     O1 3299   2.221   0.299   2.575 -0.5462  0.0479  0.6141
  177ANI     C2 3300   2.151   0.254   2.681 -0.6711  0.0700 -0.1153
  177ANI     C3 3301   2.075   0.338   2.769 -0.2433  0.0009  0.1661
  177ANI     C4 3302   2.001   0.281   2.876 -0.0111 -1.0701  0.3336
  177ANI     C5 3303   2.005   0.147   2.903 -0.1431  0.4511  0.0959
  177ANI     C6 3304   2.088   0.060   2.829 -0.5323  0.0128 -0.2916
  177ANI     C7 3305   2.170   0.122   2.727 -0.0228  0.6649  0.0001
  177ANI     H1 3306   2.097   0.433   2.471 -0.3226  0.8237  0.3580
  177ANI     H2 3307   2.220   0.509   2.589  1.2338  0.5675 -1.3009
  177ANI     H3 3308   2.265   0.442   2.434 -0.6998 -1.8694 -1.2649
  177ANI     H4 3309   2.071   0.446   2.757 -2.1167 -0.2280 -1.6000
  177ANI     H5 3310   1.937   0.349   2.931  1.6541  0.8803 -0.0523
  177ANI     H6 3311   1.949   0.104   2.986 -0.1807 -0.2927 -0.3147
  177ANI     H7 3312   2.101  -0.047   2.842 -0.0603 -0.1216 -1.8614
  177ANI     H8 3313   2.231   0.055   2.668 -0.6729  0.4884 -0.4719
  178ANI     C1 3314   2.654   1.922   0.412  0.2620 -0.4361  0.7436
  178ANI     O1 3315   2.670   1.815   0.502 -0.3399  0.5392  0.0996
  178ANI     C2 3316   2.720   1.694   0.466  0.0726 -0.9525  0.1949
  178ANI     C3 3317   2.721   1.590   0.558 -0.2424 -0.1534  0.0517
  178ANI     C4 3318   2.768   1.455   0.521 -0.4988 -0.1125 -0.4410
  178ANI     C5 3319   2.818   1.435   0.391 -0.3687  0.4038 -0.8450
  178ANI     C6 3320   2.814   1.542   0.300 -0.0582 -0.8800  0.2423
  178ANI     C7 3321   2.770   1.671   0.335 -0.3723 -0.4123 -0.7037
  178ANI     H1 3322   2.612   2.008   0.465 -2.2740 -2.5496  2.2604
  178ANI     H2 3323   2.752   1.950   0.370 -0.3897  0.9381  0.0897
  178ANI     H3 3324   2.581   1.895   0.335 -1.0097  0.0623  1.7634
  178ANI     H4 3325   2.691   1.615   0.659  0.7428  0.5694  0.1639
  178ANI     H5 3326   2.752   1.378   0.596 -1.4029  0.9602  0.4985
  178ANI     H6 3327   2.841   1.331   0.368 -1.8235 -0.1997  0.3114
  178ANI     H7 3328   2.840   1.530   0.195  0.5749  0.2008  0.2731
  178ANI     H8 3329   2.779   1.741   0.252 -1.5377 -0.0248 -0.5114
  179ANI     C1 3330   2.245   1.817   1.531  0.4005 -0.2926  0.6246
  179ANI     O1 3331   2.300   1.853   1.404 -0.1583 -0.3422  0.0765
  179ANI     C2 3332   2.398   1.950   1.397  0.2823  0.1113  0.0471
  179ANI     C3 3333   2.468   2.006   1.511  0.5374 -0.1633 -0.1673
  179ANI     C4 3334   2.565   2.106   1.486  1.0089 -1.1029 -0.0015
  179ANI     C5 3335   2.591   2.151   1.351  0.3339  0.5512  0.1796
  179ANI     C6 3336   2.532   2.084   1.237  0.1679  0.1530  0.8058
  179ANI     C7 3337   2.434   1.986   1.264  0.1384  0.1027  0.0049
  179ANI     H1 3338   2.210   1.903   1.590 -0.2019 -0.1341  0.0384
  179ANI     H2 3339   2.153   1.760   1.515 -0.2504  0.6050  1.0863
  179ANI     H3 3340   2.327   1.775   1.591  0.3750  2.0926  2.3985
  179ANI     H4 3341   2.455   1.973   1.614 -0.2909 -0.0779 -0.2443
  179ANI     H5 3342   2.611   2.163   1.566  0.3794 -0.6294  0.0295
  179ANI     H6 3343   2.659   2.233   1.331  1.1333 -0.5513 -1.7174
  179ANI     H7 3344   2.565   2.093   1.134  1.2580 -1.4484  0.9802
  179ANI     H8 3345   2.378   1.934   1.187  1.6957 -1.8525  0.1371
  180ANI     C1 3346   0.382   1.276   1.154  0.7185 -0.2246 -0.7089
  180ANI     O1 3347   0.418   1.199   1.273  0.5021 -0.1172  0.2448
  180ANI     C2 3348   0.328   1.130   1.350 -0.3811 -0.1770 -0.4840
  180ANI     C3 3349   0.375   1.070   1.470  0.8447  0.2154  0.3524
  180ANI     C4 3350   0.283   0.989   1.542  0.6558  0.7589 -0.0607
  180ANI     C5 3351   0.148   0.980   1.510  0.3732 -0.5008  0.4511
  180ANI     C6 3352   0.105   1.046   1.391 -0.2900 -0.1651  0.6547
  180ANI     C7 3353   0.190   1.118   1.309 -0.3021 -0.3791  0.0053
  180ANI     H1 3354   0.308   1.223   1.093 -0.4315  0.2582  0.2478
  180ANI     H2 3355   0.340   1.373   1.184 -0.9078 -1.5020  1.3323
  180ANI     H3 3356   0.478   1.296   1.105  1.7444  0.8918  1.6693
  180ANI     H4 3357   0.479   1.083   1.499  0.5591 -0.7453  1.8467
  180ANI     H5 3358   0.322   0.945   1.634  2.1152  0.3750 -0.8554
  180ANI     H6 3359   0.080   0.932   1.580 -1.0060 -1.5420 -1.5608
  180ANI     H7 3360  -0.001   1.034   1.369 -0.8391  1.1395  2.4480
  180ANI     H8 3361   0.150   1.154   1.214 -1.0772 -0.9824  0.0967
  181ANI     C1 3362   0.363   2.875   0.989 -0.0686 -0.6830  0.2337
  181ANI     O1 3363   0.332   2.761   1.072 -0.1750  0.4651  0.0755
  181ANI     C2 3364   0.215   2.686   1.059 -0.0330  0.3933 -0.8474
  181ANI     C3 3365   0.202   2.583   1.148  0.1157 -0.0276  0.4264
  181ANI     C4 3366   0.084   2.495   1.151 -0.6779 -0.0525  0.0473
  181ANI     C5 3367  -0.017   2.520   1.059  0.6016  0.4110 -0.8970
  181ANI     C6 3368  -0.005   2.629   0.972  1.0177 -0.3282  0.1461
  181ANI     C7 3369   0.114   2.713   0.970  0.6375 -0.2984  0.1388
  181ANI     H1 3370   0.275   2.933   0.960  1.1252  0.6882 -0.7133
  181ANI     H2 3371   0.455   2.929   1.014 -0.3923  0.6125 -1.2594
  181ANI     H3 3372   0.391   2.833   0.891 -1.1137  2.1839 -1.3429
  181ANI     H4 3373   0.275   2.563   1.226 -0.3050 -2.5286  0.2211
  181ANI     H5 3374   0.067   2.427   1.234 -1.9061  0.0573 -0.0974
  181ANI     H6 3375  -0.105   2.457   1.053 -0.1597  1.0307  2.4959
  181ANI     H7 3376  -0.088   2.642   0.904  0.2984 -0.8653  0.9176
  181ANI     H8 3377   0.124   2.785   0.889 -0.9173 -0.9510 -0.6609
  182ANI     C1 3378   1.031   0.898   2.799  0.2316  0.3472 -0.5224
  182ANI     O1 3379   1.114   0.936   2.680 -0.3033 -0.1912  0.0552
  182ANI     C2 3380   1.056   0.928   2.554 -0.0579 -0.7987 -0.2892
  182ANI     C3 3381   0.915   0.891   2.532 -0.7457 -0.1349 -0.2043
  182ANI     C4 3382   0.857   0.861   2.404  0.0013 -0.0008  0.0004
  182ANI     C5 3383   0.944   0.870   2.295  0.4887 -0.4173  0.4035
  182ANI     C6 3384   1.080   0.899   2.311  0.0499 -0.5571 -0.5288
  182ANI     C7 3385   1.133   0.940   2.438  0.2864 -0.6846  0.8576
  182ANI     H1 3386   0.963   0.813   2.788  0.4394  0.1997 -0.6783
  182ANI     H2 3387   1.083   0.885   2.895 -0.5324  2.8799  0.2697
  182ANI     H3 3388   0.967   0.982   2.826  1.4604  0.8763  0.7955
  182ANI     H4 3389   0.842   0.881   2.611 -0.0649 -2.7508  0.1450
  182ANI     H5 3390   0.754   0.826   2.404 -1.0399  2.8495  1.6412
  182ANI     H6 3391   0.913   0.854   2.192 -1.3103  2.1082  0.5033
  182ANI     H7 3392   1.141   0.893   2.221  1.6649 -0.8379  0.5767
  182ANI     H8 3393   1.238   0.967   2.446  0.4569 -0.8248 -0.7328
  183ANI     C1 3394   0.150   2.239   2.952  0.4241  0.0151  0.5648
  183ANI     O1 3395   0.229   2.124   3.004 -0.3912 -0.0995  0.0107
  183ANI     C2 3396   0.188   1.994   3.001 -0.5680 -0.7769 -0.4522
  183ANI     C3 3397   0.270   1.900   3.059  0.2696  1.2600  0.2589
  183ANI     C4 3398   0.241   1.760   3.042 -0.0613  0.6667 -0.7850
  183ANI     C5 3399   0.137   1.723   2.956 -0.3379  0.6353  0.0873
  183ANI     C6 3400   0.057   1.819   2.896 -0.3405  0.9784 -0.1959
  183ANI     C7 3401   0.077   1.955   2.929  0.1539  0.4981  0.8393
  183ANI     H1 3402   0.154   2.235   2.842 -3.6641 -1.6152  0.3956
  183ANI     H2 3403   0.045   2.235   2.982 -0.5234 -5.3367 -2.7486
  183ANI     H3 3404   0.202   2.328   2.987  0.5595  0.1388  0.0495
  183ANI     H4 3405   0.355   1.922   3.122  1.2642 -1.5042 -0.0311
  183ANI     H5 3406   0.292   1.689   3.106 -1.0470  1.6043  1.0932
  183ANI     H6 3407   0.108   1.620   2.940  0.2914  0.8024 -2.3188
  183ANI     H7 3408  -0.024   1.788   2.831 -1.2219  1.2335  0.7696
  183ANI     H8 3409   0.007   2.024   2.883 -0.2738 -2.3569 -3.0243
  184ANI     C1 3410   1.762   2.331   2.873  0.5205 -0.7934 -0.1357
  184ANI     O1 3411   1.754   2.186   2.886  0.2189  0.2134 -0.4881
  184ANI     C2 3412   1.635   2.123   2.906  0.5739  0.4619  0.6287
  184ANI     C3 3413   1.513   2.190   2.908 -0.3227 -0.3177  0.9072
  184ANI     C4 3414   1.391   2.126   2.924  0.1599  0.1451 -0.7784
  184ANI     C5 3415   1.396   1.991   2.963  0.2393  0.2813  0.3954
  184ANI     C6 3416   1.513   1.920   2.960 -0.7299  0.1543  0.5543
  184ANI     C7 3417   1.635   1.982   2.923 -0.1983  0.2088 -0.1060
  184ANI     H1 3418   1.693   2.382   2.940  0.1136 -0.7391 -0.5927
  184ANI     H2 3419   1.860   2.369   2.905 -0.1852  2.2124 -1.3659
  184ANI     H3 3420   1.729   2.362   2.773 -1.1784  0.7683  0.8953
  184ANI     H4 3421   1.510   2.295   2.881  0.9965 -0.5804 -0.3842
  184ANI     H5 3422   1.296   2.178   2.917 -0.8665 -1.6635 -0.6802
  184ANI     H6 3423   1.296   1.954   2.983  0.7933 -2.3535 -1.5034
  184ANI     H7 3424   1.507   1.816   2.991  0.7809 -0.6893 -1.8260
  184ANI     H8 3425   1.732   1.934   2.923  0.2894  1.1747 -0.5672
  185ANI     C1 3426   0.311   2.970   3.103  0.0343 -0.1205  0.1801
  185ANI     O1 3427   0.388   2.987   2.978 -0.1407  0.1162 -0.1494
  185ANI     C2 3428   0.388   2.894   2.879 -0.1748 -0.1974  0.8000
  185ANI     C3 3429   0.430   2.934   2.749  0.1625  0.3407 -0.0973
  185ANI     C4 3430   0.436   2.833   2.643  0.2292 -0.2189  0.5233
  185ANI     C5 3431   0.402   2.701   2.673 -0.2811 -0.0602  1.0371
  185ANI     C6 3432   0.362   2.667   2.799  0.0840 -0.7749 -0.0036
  185ANI     C7 3433   0.348   2.762   2.902  0.6427 -0.3639 -0.4923
  185ANI     H1 3434   0.332   3.062   3.159  1.0101 -0.4798  0.4331
  185ANI     H2 3435   0.205   2.956   3.078  0.0415 -0.5485  0.3821
  185ANI     H3 3436   0.351   2.877   3.146  0.4098  0.1686  0.4637
  185ANI     H4 3437   0.469   3.035   2.747  1.2942 -0.0780  0.5984
  185ANI     H5 3438   0.481   2.859   2.547 -2.0803 -1.9530 -1.0750
  185ANI     H6 3439   0.403   2.631   2.589  0.6467  1.2080 -0.0343
  185ANI     H7 3440   0.343   2.564   2.826  0.4171 -0.7867  0.1891
  185ANI     H8 3441   0.312   2.732   3.000 -2.4257  3.0508 -0.4691
  186ANI     C1 3442   2.592   3.045   0.878 -0.1825  0.4717  0.0591
  186ANI     O1 3443   2.504   3.077   0.776 -0.1188  0.3426  0.2120
  186ANI     C2 3444   2.374   3.053   0.783  0.5041 -0.5714 -0.1848
  186ANI     C3 3445   2.303   3.087   0.899  0.3596 -0.6927  0.3231
  186ANI     C4 3446   2.168   3.084   0.897 -0.0597 -0.5089  0.3182
  186ANI     C5 3447   2.095   3.029   0.786 -0.2095  0.3675 -0.1788
  186ANI     C6 3448   2.168   2.978   0.677  0.6915  0.0703 -0.6483
  186ANI     C7 3449   2.306   2.999   0.671 -0.2330 -0.1482  0.3753
  186ANI     H1 3450   2.692   3.071   0.841  1.0003 -3.4241  0.2443
  186ANI     H2 3451   2.582   3.092   0.976 -1.8096  1.8315 -0.7345
  186ANI     H3 3452   2.598   2.935   0.885 -2.2480  0.2335 -1.4514
  186ANI     H4 3453   2.354   3.112   0.992  1.0554  2.1974 -0.7852
  186ANI     H5 3454   2.106   3.122   0.978 -1.9687  3.1936 -2.7186
  186ANI     H6 3455   1.988   3.014   0.797  0.2756 -1.6621  2.2266
  186ANI     H7 3456   2.125   2.928   0.591 -2.1077 -0.1837  0.8317
  186ANI     H8 3457   2.354   2.955   0.584  0.7447 -0.7032  1.1718
  187ANI     C1 3458   2.696   3.115   2.850  0.1931  0.5807 -0.6313
  187ANI     O1 3459   2.606   3.219   2.838 -0.4666 -0.4407 -0.3106
  187ANI     C2 3460   2.516   3.249   2.941  0.1152 -0.9015 -0.1172
  187ANI     C3 3461   2.512   3.160   3.056  0.2711 -0.1606  0.5630
  187ANI     C4 3462   2.441   3.197   3.166 -0.5748 -0.2276 -0.2059
  187ANI     C5 3463   2.361   3.314   3.166  0.1519 -0.4427 -0.3409
  187ANI     C6 3464   2.363   3.401   3.046  0.0736 -0.3141  0.3080
  187ANI     C7 3465   2.447   3.364   2.935 -0.2728  0.2260 -0.0051
  187ANI     H1 3466   2.775   3.126   2.775  1.1549 -1.7876 -0.0238
  187ANI     H2 3467   2.750   3.118   2.945 -0.8574  0.1620 -0.0098
  187ANI     H3 3468   2.650   3.015   2.848 -1.2099  1.2018 -0.0433
  187ANI     H4 3469   2.562   3.064   3.061 -0.0982 -0.5939 -2.7229
  187ANI     H5 3470   2.438   3.129   3.251 -0.4255  0.8655  0.6756
  187ANI     H6 3471   2.306   3.342   3.256 -1.1148 -0.3519 -1.1241
  187ANI     H7 3472   2.312   3.497   3.042  2.4155  0.9574 -0.3899
  187ANI     H8 3473   2.457   3.428   2.847  0.6430  0.1709  0.0569
  188ANI     C1 3474   3.137   1.817   3.017 -0.6987 -0.4796 -0.5490
  188ANI     O1 3475   3.081   1.823   2.885 -0.1001 -0.7510  0.2486
  188ANI     C2 3476   2.984   1.742   2.833  0.6508  0.2582  0.4752
  188ANI     C3 3477   2.930   1.779   2.706  0.0783 -0.1743  0.0469
  188ANI     C4 3478   2.820   1.707   2.653 -0.4493 -0.0673  0.4043
  188ANI     C5 3479   2.778   1.589   2.713 -0.6206  0.0329  0.6086
  188ANI     C6 3480   2.824   1.557   2.841 -0.2816  0.3304 -0.1935
  188ANI     C7 3481   2.921   1.638   2.902  0.5060  0.0092 -0.0704
  188ANI     H1 3482   3.198   1.906   3.036 -1.5454  0.2365 -1.1110
  188ANI     H2 3483   3.056   1.826   3.090 -0.8788 -1.3869 -0.6295
  188ANI     H3 3484   3.196   1.726   3.029 -1.1757 -0.7819 -0.4936
  188ANI     H4 3485   2.978   1.868   2.665 -2.1536  0.8141 -0.4746
  188ANI     H5 3486   2.783   1.736   2.555 -0.7756  0.5276  0.6995
  188ANI     H6 3487   2.698   1.529   2.671  0.2010 -0.5817 -0.1144
  188ANI     H7 3488   2.776   1.476   2.896  0.3981 -1.1049 -1.6715
  188ANI     H8 3489   2.956   1.608   3.001  0.6182  0.0603 -0.0948
  189ANI     C1 3490   3.209   1.232   0.508  0.6955 -0.3097 -0.4669
  189ANI     O1 3491   3.276   1.261   0.380  0.5248  0.3429 -0.3719
  189ANI     C2 3492   3.294   1.390   0.333  0.5475  0.7685 -0.1346
  189ANI     C3 3493   3.221   1.502   0.387  0.0981  0.6365  0.0749
  189ANI     C4 3494   3.248   1.635   0.339 -0.0798  0.3937  0.5593
  189ANI     C5 3495   3.337   1.659   0.233  0.3799 -0.3540  0.1156
  189ANI     C6 3496   3.401   1.548   0.176  0.5708  0.6873 -0.0190
  189ANI     C7 3497   3.382   1.414   0.231  0.1675 -0.1347 -0.0541
  189ANI     H1 3498   3.248   1.133   0.537 -0.1092  0.2449  2.6834
  189ANI     H2 3499   3.233   1.306   0.585  1.2808  0.3984 -1.3035
  189ANI     H3 3500   3.101   1.234   0.494  0.5353 -1.6920  0.5153
  189ANI     H4 3501   3.139   1.493   0.458 -1.5710 -1.0497 -1.9903
  189ANI     H5 3502   3.194   1.722   0.377 -0.5018 -0.3713  1.7337
  189ANI     H6 3503   3.347   1.760   0.195  1.1363 -0.7164 -0.6677
  189ANI     H7 3504   3.466   1.563   0.090 -1.0741  1.2764 -1.1749
  189ANI     H8 3505   3.443   1.331   0.198  0.6914  0.2091  0.0466
  190ANI     C1 3506   1.924   2.214   1.526  0.0176  0.5050 -0.5908
  190ANI     O1 3507   2.064   2.217   1.552 -0.0718  0.1225 -0.3186
  190ANI     C2 3508   2.141   2.331   1.557  0.1081 -0.5192 -0.2729
  190ANI     C3 3509   2.090   2.456   1.547  0.8441  0.2182 -0.2110
  190ANI     C4 3510   2.172   2.570   1.571  0.4737 -0.1722 -0.2948
  190ANI     C5 3511   2.314   2.551   1.587  0.0750 -0.2199 -0.6329
  190ANI     C6 3512   2.366   2.422   1.593 -0.9498  0.9325  0.2372
  190ANI     C7 3513   2.274   2.318   1.574 -0.5812 -0.1947 -0.4155
  190ANI     H1 3514   1.903   2.248   1.424 -2.8131  2.1872  0.4954
  190ANI     H2 3515   1.883   2.113   1.532  2.1345 -0.4613 -1.7845
  190ANI     H3 3516   1.869   2.284   1.591 -1.4086 -2.1512  1.1860
  190ANI     H4 3517   1.984   2.481   1.537  0.9452  2.1587  3.0139
  190ANI     H5 3518   2.127   2.668   1.564 -0.1181 -0.4895 -1.1187
  190ANI     H6 3519   2.380   2.637   1.598 -1.4375  0.8166  0.5830
  190ANI     H7 3520   2.471   2.401   1.612 -0.9978 -0.9098 -1.4005
  190ANI     H8 3521   2.308   2.214   1.583  2.4228  0.6450 -1.3210
  191ANI     C1 3522   1.572   3.232   2.526  0.2392  0.3744 -0.7037
  191ANI     O1 3523   1.537   3.101   2.563  0.5623 -0.0869  0.3730
  191ANI     C2 3524   1.473   3.085   2.683 -0.8158  0.1890  0.4029
  191ANI     C3 3525   1.394   2.975   2.700  0.5968 -0.6760 -0.1702
  191ANI     C4 3526   1.330   2.962   2.829  0.4597 -0.0495 -0.1767
  191ANI     C5 3527   1.343   3.060   2.928 -0.0649 -0.0319 -0.3631
  191ANI     C6 3528   1.436   3.172   2.906  0.2265 -0.3119  0.0217
  191ANI     C7 3529   1.501   3.178   2.785  0.7791  0.8626  0.0290
  191ANI     H1 3530   1.672   3.258   2.563  0.1363 -2.0460  1.4189
  191ANI     H2 3531   1.567   3.251   2.418 -0.4382  0.6769 -0.6221
  191ANI     H3 3532   1.491   3.300   2.554  0.7512  1.0293 -0.8130
  191ANI     H4 3533   1.372   2.913   2.613  1.1008 -0.6202 -0.3433
  191ANI     H5 3534   1.284   2.867   2.857 -0.3071  0.0658 -1.0136
  191ANI     H6 3535   1.294   3.048   3.024  0.4065  0.1371 -0.1005
  191ANI     H7 3536   1.478   3.231   2.987 -0.3455 -1.5228  1.2155
  191ANI     H8 3537   1.570   3.262   2.775  1.2175  0.9176  2.9972
  192ANI     C1 3538   1.850   1.885   2.594  0.4413 -0.0594  0.7756
  192ANI     O1 3539   1.887   1.747   2.598 -0.1146 -0.2462  0.5658
  192ANI     C2 3540   1.858   1.667   2.490 -1.1563 -0.2482 -0.4336
  192ANI     C3 3541   1.801   1.713   2.366 -0.4716 -0.1323 -0.2685
  192ANI     C4 3542   1.777   1.624   2.261 -0.5051  0.1055  0.1746
  192ANI     C5 3543   1.792   1.489   2.278 -1.0226  0.3852 -0.4855
  192ANI     C6 3544   1.856   1.446   2.394 -0.1289  0.2412  0.5661
  192ANI     C7 3545   1.888   1.535   2.499  0.6725  0.5433 -0.1889
  192ANI     H1 3546   1.893   1.942   2.678 -2.6421  3.6154  0.0209
  192ANI     H2 3547   1.876   1.928   2.497 -2.4623 -1.5766 -0.7628
  192ANI     H3 3548   1.740   1.884   2.592  0.4224  1.0094  1.0173
  192ANI     H4 3549   1.779   1.819   2.357 -1.2169 -0.2047  0.6512
  192ANI     H5 3550   1.733   1.652   2.166  0.3350 -0.7111 -0.4728
  192ANI     H6 3551   1.762   1.420   2.200 -0.9318 -0.4575  0.2229
  192ANI     H7 3552   1.884   1.342   2.407 -1.4211  0.0297  1.7955
  192ANI     H8 3553   1.919   1.502   2.598  1.0334 -1.7671 -1.0386
  193ANI     C1 3554   0.045   0.053   0.480 -0.1516  0.5637  0.5298
  193ANI     O1 3555   0.012   0.113   0.348  0.1420  0.2890  0.2496
  193ANI     C2 3556  -0.079   0.057   0.264  0.1807 -0.7285 -0.2439
  193ANI     C3 3557  -0.174  -0.031   0.309  0.2547  0.8231 -0.3909
  193ANI     C4 3558  -0.273  -0.079   0.223 -0.2569  0.0199 -0.4516
  193ANI     C5 3559  -0.286  -0.020   0.096  0.0970  0.9769  0.3550
  193ANI     C6 3560  -0.195   0.080   0.048  0.1313 -1.1945 -0.4320
  193ANI     C7 3561  -0.092   0.116   0.137 -0.7512 -0.1685  0.1208
  193ANI     H1 3562  -0.049   0.041   0.536  0.4386 -3.0249  0.8502
  193ANI     H2 3563   0.095  -0.044   0.472 -1.5933 -0.1987  0.4365
  193ANI     H3 3564   0.123   0.110   0.530 -1.1524  1.3517  1.1999
  193ANI     H4 3565  -0.181  -0.065   0.412  3.7617 -0.9344 -0.6728
  193ANI     H5 3566  -0.353  -0.142   0.260 -1.5161  1.7667 -0.1443
  193ANI     H6 3567  -0.367  -0.039   0.026  2.3689  1.4607 -2.5143
  193ANI     H7 3568  -0.199   0.129  -0.049  2.7580  1.4349  0.7310
  193ANI     H8 3569  -0.019   0.191   0.108 -1.0125 -0.5228 -1.4978
  194ANI     C1 3570   0.697   3.061   0.890 -0.2060  0.4151  0.3094
  194ANI     O1 3571   0.730   2.951   0.980 -0.0018  0.2358 -0.0143
  194ANI     C2 3572   0.803   2.845   0.937 -0.1554 -0.2364  0.0945
  194ANI     C3 3573   0.879   2.772   1.032 -0.3085 -0.2561  0.6643
  194ANI     C4 3574   0.975   2.678   0.991 -0.1765 -0.4408 -0.2568
  194ANI     C5 3575   0.986   2.648   0.854  0.5946  0.2732 -0.1937
  194ANI     C6 3576   0.897   2.708   0.762 -0.1247  0.0498 -0.0340
  194ANI     C7 3577   0.807   2.808   0.801  0.3106 -0.1685  0.3232
  194ANI     H1 3578   0.611   3.026   0.831  0.5255 -2.3092  0.8336
  194ANI     H2 3579   0.660   3.155   0.933 -1.7621  0.7441 -1.6407
  194ANI     H3 3580   0.782   3.077   0.823  1.7270  0.7229  2.8016
  194ANI     H4 3581   0.876   2.799   1.137  2.1768 -0.9015  0.9320
  194ANI     H5 3582   1.043   2.633   1.062 -0.7536  0.3528  0.8168
  194ANI     H6 3583   1.043   2.562   0.821 -2.5296 -1.7766 -0.4483
  194ANI     H7 3584   0.899   2.676   0.658  0.5901 -1.8809  0.5536
  194ANI     H8 3585   0.741   2.855   0.728  0.7311 -1.8717 -1.1805
  195ANI     C1 3586   1.493   1.580   1.017  0.2595 -0.5741  0.2277
  195ANI     O1 3587   1.412   1.699   0.974 -0.1453 -0.4943  0.6347
  195ANI     C2 3588   1.467   1.812   0.919  0.3014  0.1276 -0.3895
  195ANI     C3 3589   1.604   1.826   0.893 -0.1214  0.0904 -0.1740
  195ANI     C4 3590   1.650   1.936   0.818  0.4129  0.2279  0.5483
  195ANI     C5 3591   1.560   2.036   0.778 -0.2098  0.0948 -0.1677
  195ANI     C6 3592   1.420   2.027   0.811 -0.2996 -0.9249 -0.1911
  195ANI     C7 3593   1.378   1.914   0.884  0.4314  0.5573  0.0828
  195ANI     H1 3594   1.423   1.512   1.066 -0.8893 -0.1545 -0.7955
  195ANI     H2 3595   1.552   1.541   0.933 -0.2088 -0.6685 -0.0630
  195ANI     H3 3596   1.560   1.607   1.100 -1.6117  2.0005  0.9879
  195ANI     H4 3597   1.663   1.737   0.915  0.8525  0.3500 -1.7063
  195ANI     H5 3598   1.758   1.938   0.812  0.3419  1.2878 -0.6522
  195ANI     H6 3599   1.595   2.120   0.718 -0.2423  0.6818  0.6275
  195ANI     H7 3600   1.353   2.108   0.784  0.2918  0.5537  2.5879
  195ANI     H8 3601   1.271   1.915   0.903  0.2115 -1.0860 -0.9482
  196ANI     C1 3602   0.656   1.627   0.649  0.2398  0.5410 -0.2767
  196ANI     O1 3603   0.593   1.547   0.548  0.4281  0.4399  0.3970
  196ANI     C2 3604   0.495   1.597   0.464 -0.2846  0.1552 -0.4721
  196ANI     C3 3605   0.450   1.727   0.472 -0.0635  0.0625  0.7101
  196ANI     C4 3606   0.352   1.774   0.388 -0.4785  0.3559 -0.6700
  196ANI     C5 3607   0.294   1.691   0.290  0.7672 -0.0968  0.0730
  196ANI     C6 3608   0.349   1.559   0.283 -0.4793  0.3083 -0.3285
  196ANI     C7 3609   0.443   1.511   0.369 -0.5872 -0.1502  0.0510
  196ANI     H1 3610   0.578   1.651   0.722 -0.0443 -2.8410  0.6431
  196ANI     H2 3611   0.736   1.570   0.698 -0.7488 -0.2872  0.4181
  196ANI     H3 3612   0.703   1.715   0.604  1.8935 -0.3909 -0.4026
  196ANI     H4 3613   0.486   1.792   0.551 -1.3995 -0.1858  1.5345
  196ANI     H5 3614   0.328   1.880   0.389  1.6654  0.8606  2.4639
  196ANI     H6 3615   0.219   1.722   0.217  1.9189 -1.5057 -1.7434
  196ANI     H7 3616   0.304   1.500   0.203  0.0320  1.1885 -1.2874
  196ANI     H8 3617   0.481   1.410   0.353  2.4507  1.0679 -0.7731
  197ANI     C1 3618   0.705   2.295   1.538 -0.4432  0.6016  0.0500
  197ANI     O1 3619   0.791   2.186   1.546 -0.2226  0.7575  0.1339
  197ANI     C2 3620   0.748   2.060   1.542  0.5328  0.2058  0.3028
  197ANI     C3 3621   0.613   2.027   1.563  0.4677  0.5557 -0.1974
  197ANI     C4 3622   0.578   1.890   1.574 -0.0250 -0.9796  1.3851
  197ANI     C5 3623   0.676   1.790   1.562 -0.1071 -0.0742  0.7695
  197ANI     C6 3624   0.805   1.821   1.529  0.5554  0.1367 -0.1972
  197ANI     C7 3625   0.837   1.960   1.523  0.5029  1.0394  0.0811
  197ANI     H1 3626   0.641   2.284   1.450  1.1647 -1.3942 -0.8847
  197ANI     H2 3627   0.636   2.299   1.624  0.0870  0.1010  0.5015
  197ANI     H3 3628   0.758   2.391   1.542 -0.1982  0.3809  3.7226
  197ANI     H4 3629   0.538   2.106   1.571  0.8701  0.8195  1.0274
  197ANI     H5 3630   0.474   1.876   1.601 -0.5406 -0.1891 -0.1502
  197ANI     H6 3631   0.647   1.686   1.579  0.5162 -0.5333 -0.8808
  197ANI     H7 3632   0.880   1.743   1.527  0.2425 -0.2532  1.7857
  197ANI     H8 3633   0.939   1.992   1.509  0.1056  2.3211  0.0510
  198ANI     C1 3634   0.739   1.463   1.182  0.0157  0.4604 -0.1395
  198ANI     O1 3635   0.704   1.331   1.241  0.2070  0.3120  0.0460
  198ANI     C2 3636   0.716   1.212   1.170 -0.3884 -0.1446 -0.4983
  198ANI     C3 3637   0.753   1.212   1.032  0.2705 -0.0366  0.0141
  198ANI     C4 3638   0.780   1.093   0.968  0.3783 -0.2882  0.0044
  198ANI     C5 3639   0.777   0.973   1.043  0.3844 -0.1124 -0.3433
  198ANI     C6 3640   0.739   0.972   1.176 -0.8407  0.5144 -0.1356
  198ANI     C7 3641   0.713   1.087   1.238  0.1203  0.0204 -0.6931
  198ANI     H1 3642   0.843   1.464   1.150  0.2555 -0.1365  0.6191
  198ANI     H2 3643   0.675   1.487   1.096 -0.2124  0.0135 -0.0986
  198ANI     H3 3644   0.712   1.543   1.253 -0.2934  0.8043 -0.6347
  198ANI     H4 3645   0.760   1.306   0.978 -2.3721  0.6337  0.7888
  198ANI     H5 3646   0.809   1.090   0.863  0.9335  1.6579  0.0723
  198ANI     H6 3647   0.802   0.883   0.987  0.3495  0.0774 -0.6624
  198ANI     H7 3648   0.728   0.877   1.226  1.2004  0.7198  0.7594
  198ANI     H8 3649   0.670   1.082   1.338 -1.6658  0.8156 -1.3916
  199ANI     C1 3650   1.077   0.222   2.861 -0.0926  0.3003 -0.1518
  199ANI     O1 3651   1.028   0.220   2.990 -0.0843  0.3198  0.1940
  199ANI     C2 3652   0.898   0.220   3.018 -0.0874 -0.3525  0.1387
  199ANI     C3 3653   0.869   0.192   3.152 -0.3977 -0.2749 -0.0315
  199ANI     C4 3654   0.737   0.179   3.196 -0.0097 -0.6412 -0.6730
  199ANI     C5 3655   0.630   0.189   3.103 -0.4128  0.0432 -0.1726
  199ANI     C6 3656   0.656   0.218   2.966 -0.4829 -0.5960 -0.1985
  199ANI     C7 3657   0.792   0.229   2.923  0.3043  0.3496 -0.4067
  199ANI     H1 3658   1.186   0.228   2.850  0.1431 -1.3141  1.0505
  199ANI     H2 3659   1.041   0.130   2.813 -1.7905  0.5202  0.6594
  199ANI     H3 3660   1.038   0.309   2.806 -0.1621 -2.0211 -3.9399
  199ANI     H4 3661   0.949   0.189   3.225 -0.5870  0.2290  0.1934
  199ANI     H5 3662   0.718   0.163   3.302  0.3461  1.7581 -0.2168
  199ANI     H6 3663   0.526   0.178   3.132 -0.4349 -0.1576 -0.3262
  199ANI     H7 3664   0.582   0.225   2.887  0.0051  1.2929 -0.5025
  199ANI     H8 3665   0.823   0.264   2.825 -1.8159  2.9652 -0.1892
  200ANI     C1 3666   1.075   0.973   1.339 -0.2910 -0.6639  0.0372
  200ANI     O1 3667   1.152   1.049   1.427  0.4764  0.0354  0.1188
  200ANI     C2 3668   1.122   1.180   1.450 -0.1678  0.3244 -0.0476
  200ANI     C3 3669   1.222   1.255   1.511 -0.2357 -0.1276  0.2278
  200ANI     C4 3670   1.203   1.392   1.535 -0.1481  0.2082 -0.1776
  200ANI     C5 3671   1.082   1.448   1.501 -0.1394 -0.2395 -0.4168
  200ANI     C6 3672   0.982   1.372   1.446 -0.3619 -0.4374 -0.1840
  200ANI     C7 3673   1.001   1.242   1.419  0.1371 -0.7401  0.2600
  200ANI     H1 3674   1.137   0.888   1.308  0.5224 -0.9332  2.3080
  200ANI     H2 3675   0.979   0.935   1.376 -0.4341 -0.7782 -0.4379
  200ANI     H3 3676   1.072   1.010   1.236 -0.2188  0.8997  0.5822
  200ANI     H4 3677   1.316   1.202   1.526 -1.1808 -1.6995  0.7623
  200ANI     H5 3678   1.285   1.449   1.577  0.1142 -0.3693  0.1045
  200ANI     H6 3679   1.069   1.552   1.528  0.4082 -0.7048  1.6813
  200ANI     H7 3680   0.882   1.411   1.430 -0.5203 -1.4345 -1.6521
  200ANI     H8 3681   0.913   1.194   1.376  1.5984 -0.4757 -3.1706
  201ANI     C1 3682   3.407   1.507   1.242  0.0094  0.3246  0.1740
  201ANI     O1 3683   3.391   1.530   1.104 -0.0732  0.2041 -0.2498
  201ANI     C2 3684   3.312   1.627   1.052 -0.5626 -0.5730 -0.6599
  201ANI     C3 3685   3.211   1.690   1.125  0.2744 -0.2354  0.2483
  201ANI     C4 3686   3.138   1.792   1.067  0.7743  0.0129  0.9649
  201ANI     C5 3687   3.157   1.811   0.929 -0.1644  0.4317 -0.7563
  201ANI     C6 3688   3.261   1.751   0.856  0.1626  0.6325 -0.0859
  201ANI     C7 3689   3.344   1.667   0.923  0.1959 -0.8356  0.0896
  201ANI     H1 3690   3.474   1.421   1.251  0.6060  0.7777  0.0641
  201ANI     H2 3691   3.445   1.598   1.291  0.9548  0.2900 -0.4929
  201ANI     H3 3692   3.311   1.481   1.288  0.1939  0.7166  0.7814
  201ANI     H4 3693   3.190   1.651   1.224 -0.0910  0.1646  0.3306
  201ANI     H5 3694   3.061   1.831   1.132  0.5525 -0.2113  0.8391
  201ANI     H6 3695   3.101   1.887   0.875 -0.4386 -0.6641 -2.0405
  201ANI     H7 3696   3.284   1.781   0.754 -1.0942  0.2759 -0.4856
  201ANI     H8 3697   3.429   1.618   0.877 -0.2847  0.0116 -1.7290
  202ANI     C1 3698   0.283   3.155   1.504 -0.0953  0.3835  0.7859
  202ANI     O1 3699   0.184   3.088   1.573  0.8352 -0.2415  0.3093
  202ANI     C2 3700   0.162   2.951   1.547 -0.4050  0.1883 -0.3321
  202ANI     C3 3701   0.255   2.864   1.479  0.1785 -0.2830 -0.3505
  202ANI     C4 3702   0.234   2.731   1.467  0.6780 -0.3360 -0.0277
  202ANI     C5 3703   0.110   2.673   1.517 -1.1667  0.1833 -0.4701
  202ANI     C6 3704   0.016   2.758   1.579 -0.6169  0.2383  0.1310
  202ANI     C7 3705   0.041   2.896   1.590  0.1211 -0.4902  0.7132
  202ANI     H1 3706   0.262   3.152   1.396  1.5051 -1.5119  0.4984
  202ANI     H2 3707   0.305   3.254   1.545  0.7533 -0.1634  1.6803
  202ANI     H3 3708   0.374   3.098   1.524 -1.8706 -2.0557  2.2660
  202ANI     H4 3709   0.351   2.907   1.455 -0.0911  0.8027  0.4802
  202ANI     H5 3710   0.301   2.665   1.413 -1.8143 -1.7411 -1.5236
  202ANI     H6 3711   0.089   2.567   1.510  0.7093 -0.2423 -0.0763
  202ANI     H7 3712  -0.075   2.708   1.610 -1.6408  1.9307 -0.1089
  202ANI     H8 3713  -0.034   2.965   1.628 -1.1944 -0.5955 -1.5923
  203ANI     C1 3714   2.527   0.806   3.149 -0.0576  0.1406 -0.3548
  203ANI     O1 3715   2.542   0.794   3.010 -0.7021 -0.1619  0.4353
  203ANI     C2 3716   2.572   0.905   2.932  0.4731  0.9587 -0.3731
  203ANI     C3 3717   2.594   1.029   2.991  0.1382  0.5199  0.4140
  203ANI     C4 3718   2.657   1.125   2.916  0.4988 -0.0073  0.1475
  203ANI     C5 3719   2.684   1.102   2.779 -0.4865  0.4895  0.5591
  203ANI     C6 3720   2.665   0.978   2.725  0.2116 -0.0999 -0.0860
  203ANI     C7 3721   2.603   0.875   2.802  0.5485 -0.1065 -0.5292
  203ANI     H1 3722   2.616   0.840   3.203 -1.4793  1.4676  1.2070
  203ANI     H2 3723   2.448   0.876   3.180 -0.1139 -1.1129  2.4954
  203ANI     H3 3724   2.502   0.707   3.190  0.4584  0.8175  1.6526
  203ANI     H4 3725   2.578   1.045   3.097  0.6240  0.6083  0.4723
  203ANI     H5 3726   2.667   1.222   2.964  0.8079 -0.1401  0.3551
  203ANI     H6 3727   2.720   1.186   2.719 -0.3785  0.7647  0.9972
  203ANI     H7 3728   2.691   0.962   2.621  2.1913  1.2076  0.1754
  203ANI     H8 3729   2.614   0.775   2.763 -0.5400 -0.2932 -0.3653
  204ANI     C1 3730   3.226   1.195   1.117  0.6694  0.7515  0.4005
  204ANI     O1 3731   3.304   1.092   1.052  0.4526  0.8077 -0.2173
  204ANI     C2 3732   3.293   0.959   1.098  0.2021 -0.5421 -0.3233
  204ANI     C3 3733   3.183   0.904   1.166  0.0987 -0.3813  0.3124
  204ANI     C4 3734   3.175   0.774   1.206  0.2545 -0.5008 -0.1464
  204ANI     C5 3735   3.287   0.692   1.196  0.2117  0.3694  0.1907
  204ANI     C6 3736   3.403   0.744   1.132  0.2884  0.3611 -0.9319
  204ANI     C7 3737   3.401   0.877   1.081 -0.0357  0.3323 -0.0158
  204ANI     H1 3738   3.264   1.293   1.083  1.7624 -0.2157 -1.2564
  204ANI     H2 3739   3.127   1.176   1.074  0.6344  0.6091  0.5468
  204ANI     H3 3740   3.229   1.185   1.226  0.8291  2.5348  0.5771
  204ANI     H4 3741   3.093   0.963   1.184  0.3199 -0.5297  2.0179
  204ANI     H5 3742   3.091   0.733   1.262 -0.0237 -2.1407 -1.7296
  204ANI     H6 3743   3.280   0.592   1.239 -2.0992  0.5692  0.3155
  204ANI     H7 3744   3.491   0.682   1.118  1.1292  1.6333 -1.3371
  204ANI     H8 3745   3.490   0.914   1.030  0.6738 -1.4247 -0.1127
  205ANI     C1 3746   1.151   1.066   0.425 -0.1843 -0.5730  0.1882
  205ANI     O1 3747   1.242   0.969   0.379 -0.4895  0.3568 -0.4453
  205ANI     C2 3748   1.212   0.890   0.279 -0.3069 -0.4810 -1.5501
  205ANI     C3 3749   1.315   0.810   0.222  0.4282 -0.6026 -0.4383
  205ANI     C4 3750   1.285   0.719   0.119  0.0531  0.2860  0.0957
  205ANI     C5 3751   1.161   0.706   0.066 -0.4149 -0.0755 -0.3679
  205ANI     C6 3752   1.054   0.782   0.118 -0.4092 -0.1779 -0.6653
  205ANI     C7 3753   1.079   0.867   0.229 -0.9074 -0.5282 -0.5313
  205ANI     H1 3754   1.057   1.020   0.458 -0.0165  0.2943  1.9650
  205ANI     H2 3755   1.174   1.125   0.515  0.7757 -0.8455  0.1255
  205ANI     H3 3756   1.128   1.143   0.350  3.7799 -0.4397 -1.0082
  205ANI     H4 3757   1.420   0.830   0.241 -0.0158 -1.2233  2.8616
  205ANI     H5 3758   1.357   0.661   0.062  0.0694 -0.4309  0.8299
  205ANI     H6 3759   1.143   0.640  -0.018  3.7062  0.4190 -1.7465
  205ANI     H7 3760   0.953   0.775   0.077 -0.1842 -0.7281 -1.1329
  205ANI     H8 3761   1.001   0.931   0.269 -0.8218  0.9114 -2.5290
  206ANI     C1 3762   2.451   0.363   3.049 -0.2673 -0.1150 -0.3040
  206ANI     O1 3763   2.322   0.386   3.116  0.1560 -0.4347 -0.0031
  206ANI     C2 3764   2.310   0.419   3.248 -0.0030  0.7544  0.4130
  206ANI     C3 3765   2.415   0.481   3.320 -0.3926 -0.1507  0.1348
  206ANI     C4 3766   2.403   0.496   3.460  0.2832  0.8493 -0.4097
  206ANI     C5 3767   2.280   0.481   3.528 -0.6368  0.0034  0.1105
  206ANI     C6 3768   2.173   0.435   3.450 -0.0314 -0.4964  0.0684
  206ANI     C7 3769   2.190   0.409   3.311 -0.2490  0.1732 -0.4177
  206ANI     H1 3770   2.434   0.323   2.949  2.3866  1.1058 -1.2985
  206ANI     H2 3771   2.512   0.454   3.042  1.3324 -1.2292 -1.3008
  206ANI     H3 3772   2.508   0.291   3.110 -1.9144 -1.8585 -0.7585
  206ANI     H4 3773   2.511   0.497   3.272 -0.5542  1.8570  0.4312
  206ANI     H5 3774   2.496   0.524   3.509  0.5682 -0.9832  0.1460
  206ANI     H6 3775   2.272   0.500   3.634  0.8908  0.2751  0.1847
  206ANI     H7 3776   2.074   0.425   3.494 -0.6296 -1.2746 -1.4181
  206ANI     H8 3777   2.107   0.364   3.258  0.2922 -1.5777  0.1854
  207ANI     C1 3778   1.995   2.237   2.633 -0.3795 -0.2875  0.5830
  207ANI     O1 3779   2.084   2.129   2.612 -0.4089  0.1833  0.1424
  207ANI     C2 3780   2.222   2.144   2.580  0.3353  0.1967 -0.4196
  207ANI     C3 3781   2.290   2.269   2.578 -0.2417 -0.2970 -1.1782
  207ANI     C4 3782   2.432   2.266   2.562 -0.7777 -0.3388  0.3865
  207ANI     C5 3783   2.502   2.149   2.533 -0.0952 -0.1609  0.0865
  207ANI     C6 3784   2.436   2.028   2.533 -0.6007  0.4339  0.0142
  207ANI     C7 3785   2.296   2.024   2.562  0.1096 -0.0814  0.3974
  207ANI     H1 3786   2.033   2.295   2.718  0.0197  0.8284 -0.3379
  207ANI     H2 3787   1.986   2.311   2.552 -1.4929  1.0887  1.9185
  207ANI     H3 3788   1.897   2.191   2.649 -0.0543 -0.9373  0.6989
  207ANI     H4 3789   2.241   2.362   2.606 -0.5471 -1.3168  1.8567
  207ANI     H5 3790   2.482   2.361   2.546 -1.1043  0.1222  1.9701
  207ANI     H6 3791   2.607   2.148   2.504 -0.4827  1.2966 -1.4233
  207ANI     H7 3792   2.493   1.938   2.511  1.0851  0.7330  2.9884
  207ANI     H8 3793   2.246   1.928   2.572 -0.9790  0.6587  2.3185
  208ANI     C1 3794   3.200   2.300   2.237  0.2403 -0.2834 -0.3757
  208ANI     O1 3795   3.055   2.317   2.249 -0.1546 -0.4944  0.4286
  208ANI     C2 3796   2.966   2.207   2.251  0.0703  0.5874 -0.0018
  208ANI     C3 3797   3.009   2.073   2.256  0.6957 -0.4019  0.0947
  208ANI     C4 3798   2.914   1.967   2.251 -0.6074  0.0794 -0.3574
  208ANI     C5 3799   2.781   1.998   2.230  0.6334  0.6523  0.2119
  208ANI     C6 3800   2.733   2.135   2.226  0.1526  0.2191 -0.4528
  208ANI     C7 3801   2.825   2.237   2.237 -0.6096 -0.0145 -0.2188
  208ANI     H1 3802   3.251   2.391   2.271  0.4260 -0.3155 -0.5650
  208ANI     H2 3803   3.241   2.217   2.296 -2.6007 -2.1761 -0.9986
  208ANI     H3 3804   3.249   2.280   2.140 -0.1245 -1.8788 -0.2323
  208ANI     H4 3805   3.112   2.040   2.250  0.6177 -0.8468  1.1405
  208ANI     H5 3806   2.944   1.863   2.253  2.3346  0.8833  0.6884
  208ANI     H6 3807   2.715   1.917   2.203 -0.4472  1.2963  0.8704
  208ANI     H7 3808   2.628   2.157   2.208 -0.0064  0.2307  0.4974
  208ANI     H8 3809   2.792   2.340   2.243 -0.1352  0.1240  0.0924
  209ANI     C1 3810   1.612   2.545   0.377  0.5133  0.2021  0.2968
  209ANI     O1 3811   1.740   2.480   0.373  0.5638 -0.0770 -0.0654
  209ANI     C2 3812   1.756   2.350   0.408  0.3395  0.2460 -0.3879
  209ANI     C3 3813   1.644   2.260   0.433 -0.4206 -0.5385  0.7288
  209ANI     C4 3814   1.654   2.127   0.472  0.5436 -0.7793 -0.1786
  209ANI     C5 3815   1.783   2.076   0.495 -0.0357 -0.6944 -0.2028
  209ANI     C6 3816   1.893   2.160   0.467 -1.0358 -0.1935  0.1663
  209ANI     C7 3817   1.881   2.296   0.425 -0.4007  0.3718 -0.2803
  209ANI     H1 3818   1.566   2.523   0.280  1.9503 -2.4226  0.1699
  209ANI     H2 3819   1.562   2.509   0.468  0.1640 -0.1796 -0.0474
  209ANI     H3 3820   1.616   2.654   0.388  1.9426  0.0327  1.5791
  209ANI     H4 3821   1.544   2.301   0.420 -0.3569 -0.8415 -0.7580
  209ANI     H5 3822   1.559   2.078   0.489 -0.5104  1.1722 -0.3198
  209ANI     H6 3823   1.792   1.976   0.537  0.9848 -0.6303 -0.2582
  209ANI     H7 3824   1.994   2.130   0.495 -1.5806 -1.2870  1.0033
  209ANI     H8 3825   1.971   2.355   0.406  0.8345 -1.0299  1.0742
  210ANI     C1 3826   1.439   2.933   3.793  0.4206 -0.5400 -0.3820
  210ANI     O1 3827   1.307   2.869   3.757  0.2751 -0.1795 -0.2246
  210ANI     C2 3828   1.306   2.741   3.708  0.3564  0.3637 -0.3692
  210ANI     C3 3829   1.415   2.667   3.662  0.3572  0.4181  0.1100
  210ANI     C4 3830   1.399   2.531   3.624  0.7289 -0.2275  0.0939
  210ANI     C5 3831   1.272   2.471   3.636  0.1050  0.8542 -0.2470
  210ANI     C6 3832   1.157   2.552   3.672 -0.3448 -0.1590 -0.0667
  210ANI     C7 3833   1.176   2.685   3.709 -0.0197 -0.1145 -0.1972
  210ANI     H1 3834   1.517   2.868   3.835 -0.1665  0.2755  2.0678
  210ANI     H2 3835   1.478   2.952   3.692  3.2016  0.3560  0.8269
  210ANI     H3 3836   1.417   3.027   3.844 -0.0778 -0.2498 -1.1174
  210ANI     H4 3837   1.516   2.708   3.668  0.7208 -0.5788  1.0031
  210ANI     H5 3838   1.484   2.475   3.586  0.2368 -0.0757 -1.2572
  210ANI     H6 3839   1.267   2.368   3.604  0.0553  1.1947 -1.3783
  210ANI     H7 3840   1.056   2.514   3.670 -0.4433 -0.2605  3.2410
  210ANI     H8 3841   1.093   2.748   3.737  0.7606  0.1813  1.5153
  211ANI     C1 3842   0.133   2.397   3.579  0.9745  0.7760  0.0451
  211ANI     O1 3843   0.238   2.472   3.512 -0.3646  0.4018 -0.2206
  211ANI     C2 3844   0.361   2.469   3.568  0.9439 -0.3148 -0.4498
  211ANI     C3 3845   0.389   2.411   3.696  0.3227  0.8089  0.0783
  211ANI     C4 3846   0.523   2.414   3.739  0.0756  0.3841 -0.0703
  211ANI     C5 3847   0.625   2.475   3.655 -0.0524  0.0924  0.9644
  211ANI     C6 3848   0.588   2.531   3.530  0.0838 -0.7727 -0.0174
  211ANI     C7 3849   0.455   2.532   3.491  0.2187 -0.2256  1.1127
  211ANI     H1 3850   0.035   2.403   3.530  0.9882  2.8298  0.2152
  211ANI     H2 3851   0.163   2.292   3.578  1.0269  0.7904 -1.9137
  211ANI     H3 3852   0.127   2.434   3.683 -0.7812  1.7423 -0.3758
  211ANI     H4 3853   0.306   2.383   3.761 -1.9871  3.2445 -1.7619
  211ANI     H5 3854   0.541   2.384   3.842  1.6394 -1.9724 -0.9692
  211ANI     H6 3855   0.727   2.501   3.682 -0.0862  2.4445 -1.0087
  211ANI     H7 3856   0.660   2.597   3.482  0.9882 -0.8467  1.2182
  211ANI     H8 3857   0.429   2.587   3.401 -1.0446  1.0356  2.2129
  212ANI     C1 3858   3.135   0.307   1.276 -0.0830  0.1552 -0.1608
  212ANI     O1 3859   3.218   0.273   1.390  0.4282 -0.7780  0.0661
  212ANI     C2 3860   3.298   0.161   1.397 -0.3289  0.1752  0.3819
  212ANI     C3 3861   3.305   0.085   1.279 -0.5855  0.2446  0.1102
  212ANI     C4 3862   3.376  -0.039   1.287 -0.1229  0.4377  0.0892
  212ANI     C5 3863   3.432  -0.081   1.400 -0.3353 -0.5006 -0.7311
  212ANI     C6 3864   3.426   0.002   1.517 -1.4576 -0.1276  0.5096
  212ANI     C7 3865   3.355   0.120   1.510  0.0450  0.2369  0.4237
  212ANI     H1 3866   3.201   0.327   1.190 -1.2471 -2.0751 -1.6100
  212ANI     H2 3867   3.060   0.228   1.261 -0.2490  0.3988 -0.6353
  212ANI     H3 3868   3.086   0.403   1.297  2.3411  1.6579 -1.2365
  212ANI     H4 3869   3.259   0.120   1.187  0.6985  1.7895  0.0332
  212ANI     H5 3870   3.375  -0.107   1.202  2.2760  1.7046 -1.0015
  212ANI     H6 3871   3.487  -0.174   1.407 -1.1997 -0.8668  1.4915
  212ANI     H7 3872   3.463  -0.037   1.611 -1.7172 -2.8120 -0.4429
  212ANI     H8 3873   3.344   0.174   1.603 -0.5711  1.2628 -0.2368
  213ANI     C1 3874   1.252   1.699   0.278 -0.1613 -0.2694  0.0405
  213ANI     O1 3875   1.344   1.755   0.183 -0.3550  0.1093 -1.5568
  213ANI     C2 3876   1.340   1.888   0.147  0.1197  0.4684 -0.4157
  213ANI     C3 3877   1.447   1.950   0.079 -0.4436  0.7177  0.6311
  213ANI     C4 3878   1.432   2.077   0.013  0.0143 -0.1950 -0.0610
  213ANI     C5 3879   1.318   2.147   0.039  0.6364 -0.2458 -0.0403
  213ANI     C6 3880   1.227   2.099   0.133 -0.3771 -0.7124 -0.5250
  213ANI     C7 3881   1.232   1.969   0.181 -0.1967 -0.1291  0.0993
  213ANI     H1 3882   1.149   1.736   0.274  0.4120  1.4420  0.7370
  213ANI     H2 3883   1.245   1.590   0.277 -1.7421 -0.2063  1.9934
  213ANI     H3 3884   1.286   1.727   0.378  0.6628 -1.0163 -0.0156
  213ANI     H4 3885   1.541   1.897   0.063 -1.2218 -0.3791 -0.4650
  213ANI     H5 3886   1.499   2.115  -0.064  1.0130  1.8180  1.7472
  213ANI     H6 3887   1.299   2.249   0.008  1.0577 -0.2248 -0.2284
  213ANI     H7 3888   1.152   2.170   0.167  2.8150  2.5057  0.0546
  213ANI     H8 3889   1.146   1.936   0.239  1.7305 -1.9488  1.9960
  214ANI     C1 3890   3.334   2.724   0.015 -0.7093  0.7288  0.1256
  214ANI     O1 3891   3.449   2.707   0.105 -0.1075  0.5441  0.5847
  214ANI     C2 3892   3.473   2.583   0.167  0.3781  0.2375 -0.0693
  214ANI     C3 3893   3.368   2.486   0.180  0.0595 -0.3274 -0.0963
  214ANI     C4 3894   3.385   2.360   0.244 -0.2942  0.3669  0.0854
  214ANI     C5 3895   3.511   2.342   0.308 -0.1543 -0.8536  0.2968
  214ANI     C6 3896   3.619   2.435   0.286  0.0584  0.1544  0.4900
  214ANI     C7 3897   3.599   2.554   0.216 -0.1363  0.5978  0.1094
  214ANI     H1 3898   3.246   2.740   0.078 -1.7464 -0.7144 -0.9421
  214ANI     H2 3899   3.347   2.820  -0.035  4.4480  0.1402 -0.0264
  214ANI     H3 3900   3.320   2.643  -0.057  1.2439  1.9333 -1.6889
  214ANI     H4 3901   3.265   2.512   0.159  0.0294  1.0294  1.6124
  214ANI     H5 3902   3.301   2.294   0.263 -2.2475  3.2840  2.1963
  214ANI     H6 3903   3.525   2.253   0.368 -0.1940 -0.3354  1.0825
  214ANI     H7 3904   3.713   2.421   0.340  1.2942  2.5194 -0.9422
  214ANI     H8 3905   3.685   2.620   0.210  0.0409  0.4591  1.0648
  215ANI     C1 3906   0.079   0.602   0.764  0.8632  0.1828  0.1764
  215ANI     O1 3907   0.021   0.469   0.752  0.7293 -0.3196 -0.1470
  215ANI     C2 3908   0.043   0.362   0.847  0.4662  0.0692 -0.4093
  215ANI     C3 3909   0.125   0.382   0.955  0.1104  0.5146  0.1832
  215ANI     C4 3910   0.155   0.273   1.035 -0.0511 -0.2587  0.0927
  215ANI     C5 3911   0.108   0.141   1.001  0.6317 -0.0645 -0.7435
  215ANI     C6 3912   0.009   0.122   0.900  0.0009 -0.0769 -0.3980
  215ANI     C7 3913  -0.015   0.238   0.823 -1.3488 -0.0522  0.5258
  215ANI     H1 3914   0.028   0.671   0.696 -0.4764 -0.5386  0.4435
  215ANI     H2 3915   0.060   0.639   0.865  3.2308  1.0127  0.3496
  215ANI     H3 3916   0.186   0.594   0.741  0.7012  2.1241 -1.4364
  215ANI     H4 3917   0.171   0.480   0.967 -1.7974  1.0498  3.6777
  215ANI     H5 3918   0.219   0.281   1.122 -0.0198 -1.1785  0.1635
  215ANI     H6 3919   0.149   0.067   1.068 -1.4845  1.1129  1.9700
  215ANI     H7 3920  -0.038   0.024   0.894 -0.5000  0.1387 -0.0690
  215ANI     H8 3921  -0.070   0.214   0.733 -1.4172  0.3652  0.4537
  216ANI     C1 3922   2.865   2.275   0.057 -1.0540  0.1047 -0.8576
  216ANI     O1 3923   2.889   2.182  -0.053 -0.1338  0.0328 -0.4897
  216ANI     C2 3924   2.957   2.064  -0.033 -0.1021 -0.0836 -0.8290
  216ANI     C3 3925   2.987   1.983  -0.144 -0.4720  0.0717 -0.3240
  216ANI     C4 3926   3.045   1.847  -0.136  0.1724 -0.7473  0.1284
  216ANI     C5 3927   3.084   1.808  -0.010 -0.1997  0.1397  0.1489
  216ANI     C6 3928   3.063   1.889   0.109  0.4010 -0.1537 -0.1388
  216ANI     C7 3929   2.985   2.013   0.096  0.1768  0.5002 -1.0416
  216ANI     H1 3930   2.959   2.303   0.106 -1.2591  0.4494 -0.6592
  216ANI     H2 3931   2.816   2.365   0.019 -0.8852 -0.3330 -2.1349
  216ANI     H3 3932   2.799   2.230   0.132 -1.2791  0.6110 -0.7475
  216ANI     H4 3933   2.957   2.027  -0.238  1.9871  1.3926 -0.5360
  216ANI     H5 3934   3.058   1.797  -0.232  0.0011 -0.5310 -0.0100
  216ANI     H6 3935   3.128   1.712   0.012  0.0460 -0.0373 -1.0754
  216ANI     H7 3936   3.102   1.850   0.203 -0.8457 -0.1090  0.4028
  216ANI     H8 3937   2.953   2.058   0.190 -0.5080 -1.1259 -0.4769
  217ANI     C1 3938   0.713   3.283   3.342 -0.3600 -0.5973  0.1796
  217ANI     O1 3939   0.638   3.339   3.449  0.4396  0.0041  0.7777
  217ANI     C2 3940   0.497   3.347   3.449 -0.1766 -0.4724 -0.6608
  217ANI     C3 3941   0.429   3.300   3.334  0.3242 -0.3348 -0.6680
  217ANI     C4 3942   0.286   3.310   3.323 -0.4969 -0.6405  0.2367
  217ANI     C5 3943   0.223   3.375   3.425  0.4591 -0.1812 -0.3326
  217ANI     C6 3944   0.288   3.426   3.538  0.0039 -0.5600 -0.8407
  217ANI     C7 3945   0.425   3.402   3.556  0.5388  0.2430 -0.3459
  217ANI     H1 3946   0.820   3.283   3.366 -0.7260 -4.7290  2.2328
  217ANI     H2 3947   0.679   3.179   3.328 -1.3422 -0.3484  0.6633
  217ANI     H3 3948   0.688   3.339   3.251 -1.0680  1.2190  1.4471
  217ANI     H4 3949   0.484   3.250   3.255  1.4716  0.0245 -0.1102
  217ANI     H5 3950   0.235   3.276   3.233  2.3067 -1.3399 -1.1570
  217ANI     H6 3951   0.117   3.396   3.418  0.3965  0.5685  2.3129
  217ANI     H7 3952   0.230   3.473   3.617  0.0713 -1.2076 -0.4038
  217ANI     H8 3953   0.478   3.436   3.645  4.3114  0.5484 -2.5865
  218ANI     C1 3954   1.948   1.200   3.357  0.7033 -0.1998 -0.4423
  218ANI     O1 3955   1.984   1.306   3.449 -0.1395  0.3287  0.0890
  218ANI     C2 3956   2.045   1.418   3.403 -0.0718  0.3715  0.9696
  218ANI     C3 3957   2.090   1.513   3.495  0.2490 -0.5773 -0.4417
  218ANI     C4 3958   2.145   1.634   3.454  0.1394 -0.8914 -0.5484
  218ANI     C5 3959   2.178   1.656   3.319 -0.2682  0.3152 -0.4510
  218ANI     C6 3960   2.125   1.566   3.226 -0.2088  0.4763  0.0120
  218ANI     C7 3961   2.053   1.453   3.264 -0.9449  0.5926 -0.2372
  218ANI     H1 3962   2.045   1.160   3.325  1.6759  0.1197  1.9936
  218ANI     H2 3963   1.906   1.114   3.411  1.0885  0.1698  0.4691
  218ANI     H3 3964   1.873   1.232   3.285 -0.7836 -1.7359  0.3976
  218ANI     H4 3965   2.096   1.479   3.598  2.4621 -4.9154 -1.9046
  218ANI     H5 3966   2.179   1.715   3.519  1.0738 -0.8095 -1.1130
  218ANI     H6 3967   2.226   1.749   3.289  2.0312 -1.4084 -2.3090
  218ANI     H7 3968   2.146   1.600   3.125 -0.2947  0.8228  0.1100
  218ANI     H8 3969   2.030   1.378   3.189 -3.3509 -1.1484  2.1669
   3.40320   3.43847   3.80000
