THF comparator n4
 4270
    1GR      C1    1   0.000   0.000   1.900
    1GR      C2    2   0.142   0.000   1.900
    1GR      C3    3   0.213   0.123   1.900
    1GR      C4    4   0.354   0.123   1.900
    1GR      C5    5   0.000   0.246   1.900
    1GR      C6    6   0.142   0.246   1.900
    1GR      C7    7   0.213   0.368   1.900
    1GR      C8    8   0.354   0.368   1.900
    1GR      C9    9   0.000   0.491   1.900
    1GR     C10   10   0.142   0.491   1.900
    1GR     C11   11   0.213   0.614   1.900
    1GR     C12   12   0.354   0.614   1.900
    1GR     C13   13   0.000   0.737   1.900
    1GR     C14   14   0.142   0.737   1.900
    1GR     C15   15   0.213   0.860   1.900
    1GR     C16   16   0.354   0.860   1.900
    1GR     C17   17   0.000   0.982   1.900
    1GR     C18   18   0.142   0.982   1.900
    1GR     C19   19   0.213   1.105   1.900
    1GR     C20   20   0.354   1.105   1.900
    1GR     C21   21   0.000   1.228   1.900
    1GR     C22   22   0.142   1.228   1.900
    1GR     C23   23   0.213   1.351   1.900
    1GR     C24   24   0.354   1.351   1.900
    1GR     C25   25   0.000   1.474   1.900
    1GR     C26   26   0.142   1.474   1.900
    1GR     C27   27   0.213   1.596   1.900
    1GR     C28   28   0.354   1.596   1.900
    1GR     C29   29   0.000   1.719   1.900
    1GR     C30   30   0.142   1.719   1.900
    1GR     C31   31   0.213   1.842   1.900
    1GR     C32   32   0.354   1.842   1.900
    1GR     C33   33   0.000   1.965   1.900
    1GR     C34   34   0.142   1.965   1.900
    1GR     C35   35   0.213   2.088   1.900
    1GR     C36   36   0.354   2.088   1.900
    1GR     C37   37   0.000   2.210   1.900
    1GR     C38   38   0.142   2.210   1.900
    1GR     C39   39   0.213   2.333   1.900
    1GR     C40   40   0.354   2.333   1.900
    1GR     C41   41   0.000   2.456   1.900
    1GR     C42   42   0.142   2.456   1.900
    1GR     C43   43   0.213   2.579   1.900
    1GR     C44   44   0.354   2.579   1.900
    1GR     C45   45   0.000   2.702   1.900
    1GR     C46   46   0.142   2.702   1.900
    1GR     C47   47   0.213   2.824   1.900
    1GR     C48   48   0.354   2.824   1.900
    1GR     C49   49   0.000   2.947   1.900
    1GR     C50   50   0.142   2.947   1.900
    1GR     C51   51   0.213   3.070   1.900
    1GR     C52   52   0.354   3.070   1.900
    1GR     C53   53   0.000   3.193   1.900
    1GR     C54   54   0.142   3.193   1.900
    1GR     C55   55   0.213   3.316   1.900
    1GR     C56   56   0.354   3.316   1.900
    1GR     C57   57   0.425   0.000   1.900
    1GR     C58   58   0.567   0.000   1.900
    1GR     C59   59   0.638   0.123   1.900
    1GR     C60   60   0.780   0.123   1.900
    1GR     C61   61   0.425   0.246   1.900
    1GR     C62   62   0.567   0.246   1.900
    1GR     C63   63   0.638   0.368   1.900
    1GR     C64   64   0.780   0.368   1.900
    1GR     C65   65   0.425   0.491   1.900
    1GR     C66   66   0.567   0.491   1.900
    1GR     C67   67   0.638   0.614   1.900
    1GR     C68   68   0.780   0.614   1.900
    1GR     C69   69   0.425   0.737   1.900
    1GR     C70   70   0.567   0.737   1.900
    1GR     C71   71   0.638   0.860   1.900
    1GR     C72   72   0.780   0.860   1.900
    1GR     C73   73   0.425   0.982   1.900
    1GR     C74   74   0.567   0.982   1.900
    1GR     C75   75   0.638   1.105   1.900
    1GR     C76   76   0.780   1.105   1.900
    1GR     C77   77   0.425   1.228   1.900
    1GR     C78   78   0.567   1.228   1.900
    1GR     C79   79   0.638   1.351   1.900
    1GR     C80   80   0.780   1.351   1.900
    1GR     C81   81   0.425   1.474   1.900
    1GR     C82   82   0.567   1.474   1.900
    1GR     C83   83   0.638   1.596   1.900
    1GR     C84   84   0.780   1.596   1.900
    1GR     C85   85   0.425   1.719   1.900
    1GR     C86   86   0.567   1.719   1.900
    1GR     C87   87   0.638   1.842   1.900
    1GR     C88   88   0.780   1.842   1.900
    1GR     C89   89   0.425   1.965   1.900
    1GR     C90   90   0.567   1.965   1.900
    1GR     C91   91   0.638   2.088   1.900
    1GR     C92   92   0.780   2.088   1.900
    1GR     C93   93   0.425   2.210   1.900
    1GR     C94   94   0.567   2.210   1.900
    1GR     C95   95   0.638   2.333   1.900
    1GR     C96   96   0.780   2.333   1.900
    1GR     C97   97   0.425   2.456   1.900
    1GR     C98   98   0.567   2.456   1.900
    1GR     C99   99   0.638   2.579   1.900
    1GR    C100  100   0.780   2.579   1.900
    1GR    C101  101   0.425   2.702   1.900
    1GR    C102  102   0.567   2.702   1.900
    1GR    C103  103   0.638   2.824   1.900
    1GR    C104  104   0.780   2.824   1.900
    1GR    C105  105   0.425   2.947   1.900
    1GR    C106  106   0.567   2.947   1.900
    1GR    C107  107   0.638   3.070   1.900
    1GR    C108  108   0.780   3.070   1.900
    1GR    C109  109   0.425   3.193   1.900
    1GR    C110  110   0.567   3.193   1.900
    1GR    C111  111   0.638   3.316   1.900
    1GR    C112  112   0.780   3.316   1.900
    1GR    C113  113   0.851   0.000   1.900
    1GR    C114  114   0.993   0.000   1.900
    1GR    C115  115   1.064   0.123   1.900
    1GR    C116  116   1.205   0.123   1.900
    1GR    C117  117   0.851   0.246   1.900
    1GR    C118  118   0.993   0.246   1.900
    1GR    C119  119   1.064   0.368   1.900
    1GR    C120  120   1.205   0.368   1.900
    1GR    C121  121   0.851   0.491   1.900
    1GR    C122  122   0.993   0.491   1.900
    1GR    C123  123   1.064   0.614   1.900
    1GR    C124  124   1.205   0.614   1.900
    1GR    C125  125   0.851   0.737   1.900
    1GR    C126  126   0.993   0.737   1.900
    1GR    C127  127   1.064   0.860   1.900
    1GR    C128  128   1.205   0.860   1.900
    1GR    C129  129   0.851   0.982   1.900
    1GR    C130  130   0.993   0.982   1.900
    1GR    C131  131   1.064   1.105   1.900
    1GR    C132  132   1.205   1.105   1.900
    1GR    C133  133   0.851   1.228   1.900
    1GR    C134  134   0.993   1.228   1.900
    1GR    C135  135   1.064   1.351   1.900
    1GR    C136  136   1.205   1.351   1.900
    1GR    C137  137   0.851   1.474   1.900
    1GR    C138  138   0.993   1.474   1.900
    1GR    C139  139   1.064   1.596   1.900
    1GR    C140  140   1.205   1.596   1.900
    1GR    C141  141   0.851   1.719   1.900
    1GR    C142  142   0.993   1.719   1.900
    1GR    C143  143   1.064   1.842   1.900
    1GR    C144  144   1.205   1.842   1.900
    1GR    C145  145   0.851   1.965   1.900
    1GR    C146  146   0.993   1.965   1.900
    1GR    C147  147   1.064   2.088   1.900
    1GR    C148  148   1.205   2.088   1.900
    1GR    C149  149   0.851   2.210   1.900
    1GR    C150  150   0.993   2.210   1.900
    1GR    C151  151   1.064   2.333   1.900
    1GR    C152  152   1.205   2.333   1.900
    1GR    C153  153   0.851   2.456   1.900
    1GR    C154  154   0.993   2.456   1.900
    1GR    C155  155   1.064   2.579   1.900
    1GR    C156  156   1.205   2.579   1.900
    1GR    C157  157   0.851   2.702   1.900
    1GR    C158  158   0.993   2.702   1.900
    1GR    C159  159   1.064   2.824   1.900
    1GR    C160  160   1.205   2.824   1.900
    1GR    C161  161   0.851   2.947   1.900
    1GR    C162  162   0.993   2.947   1.900
    1GR    C163  163   1.064   3.070   1.900
    1GR    C164  164   1.205   3.070   1.900
    1GR    C165  165   0.851   3.193   1.900
    1GR    C166  166   0.993   3.193   1.900
    1GR    C167  167   1.064   3.316   1.900
    1GR    C168  168   1.205   3.316   1.900
    1GR    C169  169   1.276   0.000   1.900
    1GR    C170  170   1.418   0.000   1.900
    1GR    C171  171   1.489   0.123   1.900
    1GR    C172  172   1.631   0.123   1.900
    1GR    C173  173   1.276   0.246   1.900
    1GR    C174  174   1.418   0.246   1.900
    1GR    C175  175   1.489   0.368   1.900
    1GR    C176  176   1.631   0.368   1.900
    1GR    C177  177   1.276   0.491   1.900
    1GR    C178  178   1.418   0.491   1.900
    1GR    C179  179   1.489   0.614   1.900
    1GR    C180  180   1.631   0.614   1.900
    1GR    C181  181   1.276   0.737   1.900
    1GR    C182  182   1.418   0.737   1.900
    1GR    C183  183   1.489   0.860   1.900
    1GR    C184  184   1.631   0.860   1.900
    1GR    C185  185   1.276   0.982   1.900
    1GR    C186  186   1.418   0.982   1.900
    1GR    C187  187   1.489   1.105   1.900
    1GR    C188  188   1.631   1.105   1.900
    1GR    C189  189   1.276   1.228   1.900
    1GR    C190  190   1.418   1.228   1.900
    1GR    C191  191   1.489   1.351   1.900
    1GR    C192  192   1.631   1.351   1.900
    1GR    C193  193   1.276   1.474   1.900
    1GR    C194  194   1.418   1.474   1.900
    1GR    C195  195   1.489   1.596   1.900
    1GR    C196  196   1.631   1.596   1.900
    1GR    C197  197   1.276   1.719   1.900
    1GR    C198  198   1.418   1.719   1.900
    1GR    C199  199   1.489   1.842   1.900
    1GR    C200  200   1.631   1.842   1.900
    1GR    C201  201   1.276   1.965   1.900
    1GR    C202  202   1.418   1.965   1.900
    1GR    C203  203   1.489   2.088   1.900
    1GR    C204  204   1.631   2.088   1.900
    1GR    C205  205   1.276   2.210   1.900
    1GR    C206  206   1.418   2.210   1.900
    1GR    C207  207   1.489   2.333   1.900
    1GR    C208  208   1.631   2.333   1.900
    1GR    C209  209   1.276   2.456   1.900
    1GR    C210  210   1.418   2.456   1.900
    1GR    C211  211   1.489   2.579   1.900
    1GR    C212  212   1.631   2.579   1.900
    1GR    C213  213   1.276   2.702   1.900
    1GR    C214  214   1.418   2.702   1.900
    1GR    C215  215   1.489   2.824   1.900
    1GR    C216  216   1.631   2.824   1.900
    1GR    C217  217   1.276   2.947   1.900
    1GR    C218  218   1.418   2.947   1.900
    1GR    C219  219   1.489   3.070   1.900
    1GR    C220  220   1.631   3.070   1.900
    1GR    C221  221   1.276   3.193   1.900
    1GR    C222  222   1.418   3.193   1.900
    1GR    C223  223   1.489   3.316   1.900
    1GR    C224  224   1.631   3.316   1.900
    1GR    C225  225   1.702   0.000   1.900
    1GR    C226  226   1.843   0.000   1.900
    1GR    C227  227   1.914   0.123   1.900
    1GR    C228  228   2.056   0.123   1.900
    1GR    C229  229   1.702   0.246   1.900
    1GR    C230  230   1.843   0.246   1.900
    1GR    C231  231   1.914   0.368   1.900
    1GR    C232  232   2.056   0.368   1.900
    1GR    C233  233   1.702   0.491   1.900
    1GR    C234  234   1.843   0.491   1.900
    1GR    C235  235   1.914   0.614   1.900
    1GR    C236  236   2.056   0.614   1.900
    1GR    C237  237   1.702   0.737   1.900
    1GR    C238  238   1.843   0.737   1.900
    1GR    C239  239   1.914   0.860   1.900
    1GR    C240  240   2.056   0.860   1.900
    1GR    C241  241   1.702   0.982   1.900
    1GR    C242  242   1.843   0.982   1.900
    1GR    C243  243   1.914   1.105   1.900
    1GR    C244  244   2.056   1.105   1.900
    1GR    C245  245   1.702   1.228   1.900
    1GR    C246  246   1.843   1.228   1.900
    1GR    C247  247   1.914   1.351   1.900
    1GR    C248  248   2.056   1.351   1.900
    1GR    C249  249   1.702   1.474   1.900
    1GR    C250  250   1.843   1.474   1.900
    1GR    C251  251   1.914   1.596   1.900
    1GR    C252  252   2.056   1.596   1.900
    1GR    C253  253   1.702   1.719   1.900
    1GR    C254  254   1.843   1.719   1.900
    1GR    C255  255   1.914   1.842   1.900
    1GR    C256  256   2.056   1.842   1.900
    1GR    C257  257   1.702   1.965   1.900
    1GR    C258  258   1.843   1.965   1.900
    1GR    C259  259   1.914   2.088   1.900
    1GR    C260  260   2.056   2.088   1.900
    1GR    C261  261   1.702   2.210   1.900
    1GR    C262  262   1.843   2.210   1.900
    1GR    C263  263   1.914   2.333   1.900
    1GR    C264  264   2.056   2.333   1.900
    1GR    C265  265   1.702   2.456   1.900
    1GR    C266  266   1.843   2.456   1.900
    1GR    C267  267   1.914   2.579   1.900
    1GR    C268  268   2.056   2.579   1.900
    1GR    C269  269   1.702   2.702   1.900
    1GR    C270  270   1.843   2.702   1.900
    1GR    C271  271   1.914   2.824   1.900
    1GR    C272  272   2.056   2.824   1.900
    1GR    C273  273   1.702   2.947   1.900
    1GR    C274  274   1.843   2.947   1.900
    1GR    C275  275   1.914   3.070   1.900
    1GR    C276  276   2.056   3.070   1.900
    1GR    C277  277   1.702   3.193   1.900
    1GR    C278  278   1.843   3.193   1.900
    1GR    C279  279   1.914   3.316   1.900
    1GR    C280  280   2.056   3.316   1.900
    1GR    C281  281   2.127   0.000   1.900
    1GR    C282  282   2.269   0.000   1.900
    1GR    C283  283   2.340   0.123   1.900
    1GR    C284  284   2.481   0.123   1.900
    1GR    C285  285   2.127   0.246   1.900
    1GR    C286  286   2.269   0.246   1.900
    1GR    C287  287   2.340   0.368   1.900
    1GR    C288  288   2.481   0.368   1.900
    1GR    C289  289   2.127   0.491   1.900
    1GR    C290  290   2.269   0.491   1.900
    1GR    C291  291   2.340   0.614   1.900
    1GR    C292  292   2.481   0.614   1.900
    1GR    C293  293   2.127   0.737   1.900
    1GR    C294  294   2.269   0.737   1.900
    1GR    C295  295   2.340   0.860   1.900
    1GR    C296  296   2.481   0.860   1.900
    1GR    C297  297   2.127   0.982   1.900
    1GR    C298  298   2.269   0.982   1.900
    1GR    C299  299   2.340   1.105   1.900
    1GR    C300  300   2.481   1.105   1.900
    1GR    C301  301   2.127   1.228   1.900
    1GR    C302  302   2.269   1.228   1.900
    1GR    C303  303   2.340   1.351   1.900
    1GR    C304  304   2.481   1.351   1.900
    1GR    C305  305   2.127   1.474   1.900
    1GR    C306  306   2.269   1.474   1.900
    1GR    C307  307   2.340   1.596   1.900
    1GR    C308  308   2.481   1.596   1.900
    1GR    C309  309   2.127   1.719   1.900
    1GR    C310  310   2.269   1.719   1.900
    1GR    C311  311   2.340   1.842   1.900
    1GR    C312  312   2.481   1.842   1.900
    1GR    C313  313   2.127   1.965   1.900
    1GR    C314  314   2.269   1.965   1.900
    1GR    C315  315   2.340   2.088   1.900
    1GR    C316  316   2.481   2.088   1.900
    1GR    C317  317   2.127   2.210   1.900
    1GR    C318  318   2.269   2.210   1.900
    1GR    C319  319   2.340   2.333   1.900
    1GR    C320  320   2.481   2.333   1.900
    1GR    C321  321   2.127   2.456   1.900
    1GR    C322  322   2.269   2.456   1.900
    1GR    C323  323   2.340   2.579   1.900
    1GR    C324  324   2.481   2.579   1.900
    1GR    C325  325   2.127   2.702   1.900
    1GR    C326  326   2.269   2.702   1.900
    1GR    C327  327   2.340   2.824   1.900
    1GR    C328  328   2.481   2.824   1.900
    1GR    C329  329   2.127   2.947   1.900
    1GR    C330  330   2.269   2.947   1.900
    1GR    C331  331   2.340   3.070   1.900
    1GR    C332  332   2.481   3.070   1.900
    1GR    C333  333   2.127   3.193   1.900
    1GR    C334  334   2.269   3.193   1.900
    1GR    C335  335   2.340   3.316   1.900
    1GR    C336  336   2.481   3.316   1.900
    1GR    C337  337   2.552   0.000   1.900
    1GR    C338  338   2.694   0.000   1.900
    1GR    C339  339   2.765   0.123   1.900
    1GR    C340  340   2.907   0.123   1.900
    1GR    C341  341   2.552   0.246   1.900
    1GR    C342  342   2.694   0.246   1.900
    1GR    C343  343   2.765   0.368   1.900
    1GR    C344  344   2.907   0.368   1.900
    1GR    C345  345   2.552   0.491   1.900
    1GR    C346  346   2.694   0.491   1.900
    1GR    C347  347   2.765   0.614   1.900
    1GR    C348  348   2.907   0.614   1.900
    1GR    C349  349   2.552   0.737   1.900
    1GR    C350  350   2.694   0.737   1.900
    1GR    C351  351   2.765   0.860   1.900
    1GR    C352  352   2.907   0.860   1.900
    1GR    C353  353   2.552   0.982   1.900
    1GR    C354  354   2.694   0.982   1.900
    1GR    C355  355   2.765   1.105   1.900
    1GR    C356  356   2.907   1.105   1.900
    1GR    C357  357   2.552   1.228   1.900
    1GR    C358  358   2.694   1.228   1.900
    1GR    C359  359   2.765   1.351   1.900
    1GR    C360  360   2.907   1.351   1.900
    1GR    C361  361   2.552   1.474   1.900
    1GR    C362  362   2.694   1.474   1.900
    1GR    C363  363   2.765   1.596   1.900
    1GR    C364  364   2.907   1.596   1.900
    1GR    C365  365   2.552   1.719   1.900
    1GR    C366  366   2.694   1.719   1.900
    1GR    C367  367   2.765   1.842   1.900
    1GR    C368  368   2.907   1.842   1.900
    1GR    C369  369   2.552   1.965   1.900
    1GR    C370  370   2.694   1.965   1.900
    1GR    C371  371   2.765   2.088   1.900
    1GR    C372  372   2.907   2.088   1.900
    1GR    C373  373   2.552   2.210   1.900
    1GR    C374  374   2.694   2.210   1.900
    1GR    C375  375   2.765   2.333   1.900
    1GR    C376  376   2.907   2.333   1.900
    1GR    C377  377   2.552   2.456   1.900
    1GR    C378  378   2.694   2.456   1.900
    1GR    C379  379   2.765   2.579   1.900
    1GR    C380  380   2.907   2.579   1.900
    1GR    C381  381   2.552   2.702   1.900
    1GR    C382  382   2.694   2.702   1.900
    1GR    C383  383   2.765   2.824   1.900
    1GR    C384  384   2.907   2.824   1.900
    1GR    C385  385   2.552   2.947   1.900
    1GR    C386  386   2.694   2.947   1.900
    1GR    C387  387   2.765   3.070   1.900
    1GR    C388  388   2.907   3.070   1.900
    1GR    C389  389   2.552   3.193   1.900
    1GR    C390  390   2.694   3.193   1.900
    1GR    C391  391   2.765   3.316   1.900
    1GR    C392  392   2.907   3.316   1.900
    1GR    C393  393   2.978   0.000   1.900
    1GR    C394  394   3.120   0.000   1.900
    1GR    C395  395   3.191   0.123   1.900
    1GR    C396  396   3.332   0.123   1.900
    1GR    C397  397   2.978   0.246   1.900
    1GR    C398  398   3.120   0.246   1.900
    1GR    C399  399   3.191   0.368   1.900
    1GR    C400  400   3.332   0.368   1.900
    1GR    C401  401   2.978   0.491   1.900
    1GR    C402  402   3.120   0.491   1.900
    1GR    C403  403   3.191   0.614   1.900
    1GR    C404  404   3.332   0.614   1.900
    1GR    C405  405   2.978   0.737   1.900
    1GR    C406  406   3.120   0.737   1.900
    1GR    C407  407   3.191   0.860   1.900
    1GR    C408  408   3.332   0.860   1.900
    1GR    C409  409   2.978   0.982   1.900
    1GR    C410  410   3.120   0.982   1.900
    1GR    C411  411   3.191   1.105   1.900
    1GR    C412  412   3.332   1.105   1.900
    1GR    C413  413   2.978   1.228   1.900
    1GR    C414  414   3.120   1.228   1.900
    1GR    C415  415   3.191   1.351   1.900
    1GR    C416  416   3.332   1.351   1.900
    1GR    C417  417   2.978   1.474   1.900
    1GR    C418  418   3.120   1.474   1.900
    1GR    C419  419   3.191   1.596   1.900
    1GR    C420  420   3.332   1.596   1.900
    1GR    C421  421   2.978   1.719   1.900
    1GR    C422  422   3.120   1.719   1.900
    1GR    C423  423   3.191   1.842   1.900
    1GR    C424  424   3.332   1.842   1.900
    1GR    C425  425   2.978   1.965   1.900
    1GR    C426  426   3.120   1.965   1.900
    1GR    C427  427   3.191   2.088   1.900
    1GR    C428  428   3.332   2.088   1.900
    1GR    C429  429   2.978   2.210   1.900
    1GR    C430  430   3.120   2.210   1.900
    1GR    C431  431   3.191   2.333   1.900
    1GR    C432  432   3.332   2.333   1.900
    1GR    C433  433   2.978   2.456   1.900
    1GR    C434  434   3.120   2.456   1.900
    1GR    C435  435   3.191   2.579   1.900
    1GR    C436  436   3.332   2.579   1.900
    1GR    C437  437   2.978   2.702   1.900
    1GR    C438  438   3.120   2.702   1.900
    1GR    C439  439   3.191   2.824   1.900
    1GR    C440  440   3.332   2.824   1.900
    1GR    C441  441   2.978   2.947   1.900
    1GR    C442  442   3.120   2.947   1.900
    1GR    C443  443   3.191   3.070   1.900
    1GR    C444  444   3.332   3.070   1.900
    1GR    C445  445   2.978   3.193   1.900
    1GR    C446  446   3.120   3.193   1.900
    1GR    C447  447   3.191   3.316   1.900
    1GR    C448  448   3.332   3.316   1.900
    2PMMA   CX1  449   1.202   1.844   2.475
    2PMMA   CA2  450   1.355   1.829   2.481
    2PMMA   CX3  451   1.411   1.884   2.348
    2PMMA    C4  452   1.393   1.910   2.605
    2PMMA    O5  453   1.389   1.866   2.717
    2PMMA   OS6  454   1.444   2.032   2.575
    2PMMA   CE7  455   1.489   2.118   2.678
    2PMMA   CX8  456   1.387   1.677   2.501
    2PMMA   CA9  457   1.533   1.621   2.495
    2PMMA  CX10  458   1.578   1.609   2.347
    2PMMA   C11  459   1.515   1.477   2.550
    2PMMA   O12  460   1.481   1.382   2.483
    2PMMA  OS13  461   1.527   1.470   2.685
    2PMMA  CE14  462   1.511   1.346   2.752
    2PMMA  CX15  463   1.632   1.709   2.581
    2PMMA  CA16  464   1.786   1.685   2.590
    2PMMA  CX17  465   1.837   1.772   2.707
    2PMMA   C18  466   1.810   1.540   2.632
    2PMMA   O19  467   1.822   1.500   2.745
    2PMMA  OS20  468   1.821   1.457   2.526
    2PMMA  CE21  469   1.847   1.320   2.547
    2PMMA  CX22  470   1.858   1.731   2.458
    2PMMA  CA23  471   2.012   1.754   2.449
    2PMMA  CX24  472   2.087   1.629   2.499
    2PMMA   C25  473   2.052   1.886   2.516
    2PMMA   O26  474   2.005   1.994   2.488
    2PMMA  OS27  475   2.149   1.873   2.610
    2PMMA  CE28  476   2.194   1.986   2.682
    2PMMA  CX29  477   2.051   1.774   2.300
    2PMMA  HC30  478   1.154   1.795   2.561
    2PMMA  HC31  479   1.169   1.948   2.476
    2PMMA  HC32  480   1.160   1.798   2.385
    2PMMA  HC33  481   1.520   1.898   2.352
    2PMMA  HC34  482   1.369   1.982   2.323
    2PMMA  HC35  483   1.389   1.818   2.263
    2PMMA  H136  484   1.404   2.168   2.723
    2PMMA  H137  485   1.555   2.195   2.635
    2PMMA  H138  486   1.544   2.062   2.754
    2PMMA  HC39  487   1.343   1.648   2.598
    2PMMA  HC40  488   1.326   1.620   2.430
    2PMMA  HC41  489   1.496   1.578   2.281
    2PMMA  HC42  490   1.616   1.704   2.307
    2PMMA  HC43  491   1.657   1.535   2.334
    2PMMA  H144  492   1.421   1.297   2.715
    2PMMA  H145  493   1.501   1.364   2.859
    2PMMA  H146  494   1.597   1.282   2.734
    2PMMA  HC47  495   1.621   1.813   2.548
    2PMMA  HC48  496   1.592   1.710   2.683
    2PMMA  HC49  497   1.826   1.879   2.685
    2PMMA  HC50  498   1.942   1.754   2.730
    2PMMA  HC51  499   1.782   1.754   2.800
    2PMMA  H152  500   1.769   1.277   2.609
    2PMMA  H153  501   1.943   1.307   2.598
    2PMMA  H154  502   1.850   1.269   2.451
    2PMMA  HC55  503   1.833   1.659   2.379
    2PMMA  HC56  504   1.809   1.824   2.424
    2PMMA  HC57  505   2.195   1.636   2.482
    2PMMA  HC58  506   2.074   1.610   2.605
    2PMMA  HC59  507   2.053   1.540   2.445
    2PMMA  H160  508   2.220   2.067   2.613
    2PMMA  H161  509   2.282   1.960   2.741
    2PMMA  H162  510   2.115   2.021   2.750
    2PMMA  HC63  511   2.031   1.685   2.240
    2PMMA  HC64  512   1.997   1.857   2.254
    2PMMA  HC65  513   2.158   1.797   2.289
    3THF     C1  514   0.870   1.631   1.521
    3THF     C2  515   0.896   1.739   1.415
    3THF     C3  516   0.992   1.832   1.492
    3THF     O1  517   1.059   1.750   1.589
    3THF     C4  518   1.011   1.616   1.576
    3THF     H1  519   0.804   1.666   1.601
    3THF     H2  520   0.829   1.539   1.479
    3THF     H3  521   0.804   1.790   1.384
    3THF     H4  522   0.942   1.698   1.325
    3THF     H5  523   1.065   1.881   1.426
    3THF     H6  524   0.936   1.909   1.547
    3THF     H7  525   1.080   1.560   1.511
    3THF     H8  526   1.011   1.563   1.672
    4THF     C1  527   2.279   2.846   1.305
    4THF     C2  528   2.327   2.717   1.236
    4THF     C3  529   2.466   2.765   1.188
    4THF     O1  530   2.516   2.849   1.293
    4THF     C4  531   2.408   2.887   1.379
    4THF     H1  532   2.248   2.922   1.232
    4THF     H2  533   2.196   2.829   1.374
    4THF     H3  534   2.263   2.686   1.153
    4THF     H4  535   2.335   2.633   1.305
    4THF     H5  536   2.535   2.681   1.170
    4THF     H6  537   2.457   2.824   1.096
    4THF     H7  538   2.420   2.834   1.474
    4THF     H8  539   2.414   2.995   1.399
    5THF     C1  540   3.019   1.131   0.219
    5THF     C2  541   3.094   1.266   0.206
    5THF     C3  542   3.200   1.246   0.315
    5THF     O1  543   3.247   1.113   0.291
    5THF     C4  544   3.139   1.033   0.239
    5THF     H1  545   2.953   1.128   0.306
    5THF     H2  546   2.959   1.107   0.131
    5THF     H3  547   3.031   1.354   0.223
    5THF     H4  548   3.142   1.278   0.108
    5THF     H5  549   3.283   1.317   0.310
    5THF     H6  550   3.155   1.250   0.415
    5THF     H7  551   3.171   0.989   0.144
    5THF     H8  552   3.115   0.953   0.310
    6THF     C1  553   0.817   1.257   1.591
    6THF     C2  554   0.851   1.255   1.443
    6THF     C3  555   0.785   1.122   1.408
    6THF     O1  556   0.654   1.142   1.461
    6THF     C4  557   0.666   1.221   1.580
    6THF     H1  558   0.873   1.181   1.645
    6THF     H2  559   0.835   1.355   1.637
    6THF     H3  560   0.957   1.258   1.415
    6THF     H4  561   0.804   1.341   1.394
    6THF     H5  562   0.779   1.101   1.300
    6THF     H6  563   0.832   1.038   1.459
    6THF     H7  564   0.605   1.311   1.569
    6THF     H8  565   0.628   1.161   1.663
    7THF     C1  566   1.365   0.217   0.510
    7THF     C2  567   1.224   0.275   0.532
    7THF     C3  568   1.251   0.426   0.529
    7THF     O1  569   1.362   0.441   0.439
    7THF     C4  570   1.417   0.313   0.403
    7THF     H1  571   1.426   0.224   0.601
    7THF     H2  572   1.364   0.113   0.478
    7THF     H3  573   1.181   0.243   0.628
    7THF     H4  574   1.156   0.246   0.451
    7THF     H5  575   1.166   0.485   0.493
    7THF     H6  576   1.280   0.465   0.628
    7THF     H7  577   1.381   0.287   0.303
    7THF     H8  578   1.527   0.320   0.401
    8THF     C1  579   1.282   1.220   1.104
    8THF     C2  580   1.278   1.321   0.987
    8THF     C3  581   1.177   1.247   0.897
    8THF     O1  582   1.074   1.207   0.988
    8THF     C4  583   1.132   1.179   1.116
    8THF     H1  584   1.344   1.134   1.076
    8THF     H2  585   1.324   1.260   1.196
    8THF     H3  586   1.375   1.335   0.939
    8THF     H4  587   1.240   1.420   1.015
    8THF     H5  588   1.133   1.312   0.820
    8THF     H6  589   1.221   1.159   0.850
    8THF     H7  590   1.078   1.238   1.191
    8THF     H8  591   1.118   1.073   1.141
    9THF     C1  592   2.420   2.398   0.465
    9THF     C2  593   2.295   2.434   0.550
    9THF     C3  594   2.197   2.331   0.493
    9THF     O1  595   2.277   2.212   0.496
    9THF     C4  596   2.409   2.244   0.450
    9THF     H1  597   2.415   2.444   0.366
    9THF     H2  598   2.515   2.429   0.512
    9THF     H3  599   2.261   2.537   0.536
    9THF     H4  600   2.311   2.417   0.657
    9THF     H5  601   2.107   2.318   0.554
    9THF     H6  602   2.171   2.355   0.390
    9THF     H7  603   2.483   2.191   0.510
    9THF     H8  604   2.421   2.213   0.345
   10THF     C1  605   1.585   0.565   0.616
   10THF     C2  606   1.571   0.651   0.742
   10THF     C3  607   1.642   0.775   0.687
   10THF     O1  608   1.583   0.794   0.558
   10THF     C4  609   1.544   0.666   0.506
   10THF     H1  610   1.688   0.530   0.601
   10THF     H2  611   1.520   0.477   0.618
   10THF     H3  612   1.621   0.608   0.830
   10THF     H4  613   1.467   0.671   0.767
   10THF     H5  614   1.624   0.864   0.748
   10THF     H6  615   1.750   0.759   0.676
   10THF     H7  616   1.435   0.668   0.493
   10THF     H8  617   1.592   0.646   0.410
   11THF     C1  618   2.511   0.572   0.709
   11THF     C2  619   2.376   0.545   0.640
   11THF     C3  620   2.312   0.454   0.746
   11THF     O1  621   2.349   0.514   0.871
   11THF     C4  622   2.468   0.592   0.855
   11THF     H1  623   2.578   0.486   0.701
   11THF     H2  624   2.563   0.660   0.670
   11THF     H3  625   2.388   0.497   0.543
   11THF     H4  626   2.317   0.637   0.625
   11THF     H5  627   2.203   0.448   0.738
   11THF     H6  628   2.352   0.352   0.744
   11THF     H7  629   2.442   0.697   0.872
   11THF     H8  630   2.544   0.560   0.928
   12THF     C1  631   1.982   0.400   0.374
   12THF     C2  632   2.061   0.497   0.464
   12THF     C3  633   2.054   0.625   0.378
   12THF     O1  634   1.927   0.620   0.311
   12THF     C4  635   1.865   0.492   0.333
   12THF     H1  636   2.040   0.368   0.287
   12THF     H2  637   1.948   0.310   0.428
   12THF     H3  638   2.164   0.464   0.481
   12THF     H4  639   2.014   0.512   0.561
   12THF     H5  640   2.063   0.717   0.437
   12THF     H6  641   2.131   0.627   0.299
   12THF     H7  642   1.792   0.504   0.414
   12THF     H8  643   1.813   0.460   0.242
   13THF     C1  644   2.695   2.320   0.221
   13THF     C2  645   2.821   2.406   0.193
   13THF     C3  646   2.923   2.327   0.276
   13THF     O1  647   2.891   2.190   0.246
   13THF     C4  648   2.753   2.179   0.207
   13THF     H1  649   2.657   2.337   0.322
   13THF     H2  650   2.613   2.338   0.150
   13THF     H3  651   2.812   2.510   0.227
   13THF     H4  652   2.848   2.407   0.087
   13THF     H5  653   3.027   2.347   0.249
   13THF     H6  654   2.911   2.343   0.384
   13THF     H7  655   2.749   2.142   0.104
   13THF     H8  656   2.701   2.107   0.272
   14THF     C1  657   2.136   2.155   0.173
   14THF     C2  658   2.007   2.238   0.183
   14THF     C3  659   1.901   2.126   0.176
   14THF     O1  660   1.959   2.018   0.248
   14THF     C4  661   2.098   2.043   0.271
   14THF     H1  662   2.155   2.114   0.073
   14THF     H2  663   2.225   2.210   0.205
   14THF     H3  664   1.996   2.314   0.105
   14THF     H4  665   2.002   2.289   0.280
   14THF     H5  666   1.805   2.153   0.222
   14THF     H6  667   1.882   2.092   0.073
   14THF     H7  668   2.111   2.073   0.375
   14THF     H8  669   2.155   1.950   0.252
   15THF     C1  670   2.785   0.557   1.500
   15THF     C2  671   2.847   0.691   1.457
   15THF     C3  672   2.830   0.683   1.303
   15THF     O1  673   2.712   0.603   1.281
   15THF     C4  674   2.662   0.556   1.407
   15THF     H1  675   2.853   0.473   1.480
   15THF     H2  676   2.758   0.556   1.606
   15THF     H3  677   2.951   0.702   1.489
   15THF     H4  678   2.792   0.776   1.501
   15THF     H5  679   2.817   0.781   1.256
   15THF     H6  680   2.914   0.631   1.256
   15THF     H7  681   2.585   0.625   1.444
   15THF     H8  682   2.618   0.456   1.394
   16THF     C1  683   2.390   2.022   0.852
   16THF     C2  684   2.510   2.053   0.761
   16THF     C3  685   2.512   2.205   0.780
   16THF     O1  686   2.488   2.226   0.920
   16THF     C4  687   2.434   2.105   0.974
   16THF     H1  688   2.296   2.057   0.808
   16THF     H2  689   2.377   1.916   0.873
   16THF     H3  690   2.492   2.025   0.657
   16THF     H4  691   2.602   2.005   0.796
   16THF     H5  692   2.607   2.250   0.748
   16THF     H6  693   2.430   2.252   0.724
   16THF     H7  694   2.513   2.054   1.031
   16THF     H8  695   2.351   2.127   1.043
   17THF     C1  696   1.871   2.037   0.603
   17THF     C2  697   1.770   2.111   0.513
   17THF     C3  698   1.656   2.142   0.614
   17THF     O1  699   1.716   2.132   0.743
   17THF     C4  700   1.859   2.121   0.729
   17THF     H1  701   1.838   1.934   0.623
   17THF     H2  702   1.973   2.034   0.563
   17THF     H3  703   1.733   2.053   0.428
   17THF     H4  704   1.815   2.201   0.472
   17THF     H5  705   1.613   2.241   0.598
   17THF     H6  706   1.575   2.068   0.610
   17THF     H7  707   1.904   2.220   0.714
   17THF     H8  708   1.902   2.076   0.819
   18THF     C1  709   1.024   0.402   0.912
   18THF     C2  710   1.093   0.510   0.996
   18THF     C3  711   1.104   0.626   0.893
   18THF     O1  712   0.993   0.608   0.803
   18THF     C4  713   0.921   0.489   0.838
   18THF     H1  714   1.094   0.355   0.843
   18THF     H2  715   0.978   0.324   0.973
   18THF     H3  716   1.191   0.478   1.033
   18THF     H4  717   1.034   0.541   1.083
   18THF     H5  718   1.100   0.725   0.940
   18THF     H6  719   1.196   0.618   0.834
   18THF     H7  720   0.837   0.516   0.903
   18THF     H8  721   0.881   0.443   0.747
   19THF     C1  722   0.663   2.477   0.315
   19THF     C2  723   0.612   2.509   0.174
   19THF     C3  724   0.520   2.387   0.149
   19THF     O1  725   0.467   2.350   0.277
   19THF     C4  726   0.534   2.422   0.381
   19THF     H1  727   0.744   2.402   0.312
   19THF     H2  728   0.703   2.565   0.368
   19THF     H3  729   0.693   2.516   0.101
   19THF     H4  730   0.555   2.603   0.170
   19THF     H5  731   0.436   2.409   0.082
   19THF     H6  732   0.576   2.301   0.110
   19THF     H7  733   0.469   2.503   0.416
   19THF     H8  734   0.552   2.354   0.465
   20THF     C1  735   2.511   0.170   1.576
   20THF     C2  736   2.652   0.234   1.581
   20THF     C3  737   2.718   0.178   1.456
   20THF     O1  738   2.611   0.149   1.365
   20THF     C4  739   2.485   0.184   1.425
   20THF     H1  740   2.512   0.066   1.607
   20THF     H2  741   2.437   0.225   1.635
   20THF     H3  742   2.713   0.201   1.665
   20THF     H4  743   2.647   0.343   1.584
   20THF     H5  744   2.790   0.249   1.413
   20THF     H6  745   2.771   0.085   1.478
   20THF     H7  746   2.462   0.287   1.397
   20THF     H8  747   2.406   0.117   1.389
   21THF     C1  748   0.153   0.965   0.548
   21THF     C2  749   0.301   0.986   0.584
   21THF     C3  750   0.370   0.956   0.449
   21THF     O1  751   0.273   0.987   0.347
   21THF     C4  752   0.149   1.028   0.407
   21THF     H1  753   0.126   0.859   0.545
   21THF     H2  754   0.085   1.015   0.618
   21THF     H3  755   0.334   0.919   0.664
   21THF     H4  756   0.322   1.089   0.617
   21THF     H5  757   0.460   1.017   0.436
   21THF     H6  758   0.396   0.851   0.438
   21THF     H7  759   0.144   1.137   0.412
   21THF     H8  760   0.065   0.992   0.346
   22THF     C1  761   1.726   3.259   0.720
   22THF     C2  762   1.659   3.180   0.606
   22THF     C3  763   1.708   3.261   0.484
   22THF     O1  764   1.838   3.313   0.521
   22THF     C4  765   1.864   3.284   0.659
   22THF     H1  766   1.672   3.353   0.737
   22THF     H2  767   1.733   3.206   0.816
   22THF     H3  768   1.550   3.181   0.614
   22THF     H4  769   1.692   3.075   0.602
   22THF     H5  770   1.716   3.200   0.393
   22THF     H6  771   1.642   3.346   0.464
   22THF     H7  772   1.926   3.194   0.666
   22THF     H8  773   1.919   3.367   0.707
   23THF     C1  774   0.898   1.658   0.756
   23THF     C2  775   1.029   1.588   0.798
   23THF     C3  776   1.064   1.514   0.668
   23THF     O1  777   1.025   1.602   0.562
   23THF     C4  778   0.929   1.697   0.610
   23THF     H1  779   0.813   1.589   0.763
   23THF     H2  780   0.874   1.745   0.818
   23THF     H3  781   1.018   1.518   0.882
   23THF     H4  782   1.107   1.660   0.826
   23THF     H5  783   1.171   1.492   0.661
   23THF     H6  784   1.009   1.419   0.658
   23THF     H7  785   0.976   1.796   0.605
   23THF     H8  786   0.840   1.695   0.546
   24THF     C1  787   2.758   2.453   0.882
   24THF     C2  788   2.768   2.413   1.032
   24THF     C3  789   2.787   2.259   1.024
   24THF     O1  790   2.814   2.228   0.886
   24THF     C4  791   2.845   2.348   0.815
   24THF     H1  792   2.656   2.444   0.844
   24THF     H2  793   2.792   2.556   0.864
   24THF     H3  794   2.678   2.441   1.088
   24THF     H4  795   2.853   2.461   1.081
   24THF     H5  796   2.871   2.226   1.087
   24THF     H6  797   2.697   2.205   1.056
   24THF     H7  798   2.952   2.371   0.826
   24THF     H8  799   2.822   2.335   0.708
   25THF     C1  800   3.233   2.998   0.245
   25THF     C2  801   3.152   2.902   0.152
   25THF     C3  802   3.114   2.794   0.254
   25THF     O1  803   3.075   2.869   0.369
   25THF     C4  804   3.148   2.993   0.375
   25THF     H1  805   3.334   2.960   0.264
   25THF     H2  806   3.241   3.099   0.205
   25THF     H3  807   3.212   2.863   0.069
   25THF     H4  808   3.063   2.951   0.111
   25THF     H5  809   3.029   2.732   0.221
   25THF     H6  810   3.198   2.729   0.280
   25THF     H7  811   3.075   3.075   0.380
   25THF     H8  812   3.209   2.997   0.466
   26THF     C1  813   0.942   2.295   1.569
   26THF     C2  814   0.810   2.219   1.542
   26THF     C3  815   0.853   2.142   1.416
   26THF     O1  816   0.995   2.119   1.433
   26THF     C4  817   1.040   2.179   1.555
   26THF     H1  818   0.963   2.371   1.493
   26THF     H2  819   0.946   2.344   1.666
   26THF     H3  820   0.724   2.284   1.525
   26THF     H4  821   0.784   2.150   1.623
   26THF     H5  822   0.800   2.047   1.403
   26THF     H6  823   0.839   2.203   1.326
   26THF     H7  824   1.031   2.106   1.636
   26THF     H8  825   1.144   2.211   1.546
   27THF     C1  826   2.051   2.107   1.494
   27THF     C2  827   1.954   2.197   1.574
   27THF     C3  828   1.826   2.115   1.576
   27THF     O1  829   1.868   1.977   1.580
   27THF     C4  830   2.002   1.964   1.528
   27THF     H1  831   2.046   2.129   1.387
   27THF     H2  832   2.155   2.120   1.524
   27THF     H3  833   1.935   2.295   1.531
   27THF     H4  834   1.994   2.213   1.675
   27THF     H5  835   1.761   2.137   1.662
   27THF     H6  836   1.766   2.135   1.486
   27THF     H7  837   2.065   1.918   1.605
   27THF     H8  838   2.001   1.899   1.439
   28THF     C1  839   2.839   0.641   0.874
   28THF     C2  840   2.859   0.624   0.721
   28THF     C3  841   2.865   0.772   0.685
   28THF     O1  842   2.959   0.821   0.781
   28THF     C4  843   2.948   0.746   0.903
   28THF     H1  844   2.740   0.680   0.899
   28THF     H2  845   2.853   0.549   0.931
   28THF     H3  846   2.778   0.571   0.669
   28THF     H4  847   2.953   0.575   0.694
   28THF     H5  848   2.901   0.793   0.583
   28THF     H6  849   2.768   0.821   0.699
   28THF     H7  850   3.046   0.700   0.922
   28THF     H8  851   2.923   0.813   0.986
   29THF     C1  852   1.962   2.862   1.570
   29THF     C2  853   1.809   2.883   1.565
   29THF     C3  854   1.796   3.037   1.575
   29THF     O1  855   1.926   3.092   1.549
   29THF     C4  856   2.016   2.990   1.504
   29THF     H1  857   2.001   2.860   1.672
   29THF     H2  858   1.994   2.767   1.526
   29THF     H3  859   1.756   2.829   1.644
   29THF     H4  860   1.767   2.848   1.470
   29THF     H5  861   1.721   3.076   1.505
   29THF     H6  862   1.765   3.068   1.676
   29THF     H7  863   2.016   2.984   1.394
   29THF     H8  864   2.118   3.013   1.537
   30THF     C1  865   2.671   1.228   0.753
   30THF     C2  866   2.642   1.190   0.899
   30THF     C3  867   2.683   1.042   0.896
   30THF     O1  868   2.797   1.038   0.811
   30THF     C4  869   2.805   1.156   0.731
   30THF     H1  870   2.592   1.195   0.685
   30THF     H2  871   2.684   1.336   0.739
   30THF     H3  872   2.537   1.204   0.926
   30THF     H4  873   2.705   1.246   0.968
   30THF     H5  874   2.713   1.005   0.995
   30THF     H6  875   2.606   0.977   0.854
   30THF     H7  876   2.888   1.216   0.771
   30THF     H8  877   2.824   1.132   0.626
   31THF     C1  878   1.483   2.589   1.559
   31THF     C2  879   1.328   2.589   1.576
   31THF     C3  880   1.289   2.488   1.469
   31THF     O1  881   1.394   2.389   1.474
   31THF     C4  882   1.506   2.438   1.549
   31THF     H1  883   1.517   2.638   1.468
   31THF     H2  884   1.536   2.636   1.643
   31THF     H3  885   1.277   2.685   1.566
   31THF     H4  886   1.297   2.547   1.672
   31THF     H5  887   1.192   2.442   1.487
   31THF     H6  888   1.289   2.537   1.371
   31THF     H7  889   1.506   2.389   1.647
   31THF     H8  890   1.600   2.412   1.497
   32THF     C1  891   1.085   0.308   1.478
   32THF     C2  892   1.238   0.321   1.462
   32THF     C3  893   1.242   0.437   1.360
   32THF     O1  894   1.137   0.526   1.403
   32THF     C4  895   1.046   0.457   1.490
   32THF     H1  896   1.039   0.262   1.390
   32THF     H2  897   1.056   0.250   1.567
   32THF     H3  898   1.286   0.230   1.423
   32THF     H4  899   1.288   0.349   1.556
   32THF     H5  900   1.338   0.491   1.358
   32THF     H6  901   1.220   0.403   1.259
   32THF     H7  902   1.060   0.496   1.591
   32THF     H8  903   0.942   0.478   1.458
   33THF     C1  904   0.700   2.691   1.570
   33THF     C2  905   0.794   2.806   1.530
   33THF     C3  906   0.935   2.755   1.570
   33THF     O1  907   0.919   2.618   1.609
   33THF     C4  908   0.793   2.569   1.561
   33THF     H1  909   0.664   2.705   1.672
   33THF     H2  910   0.610   2.682   1.508
   33THF     H3  911   0.766   2.898   1.582
   33THF     H4  912   0.791   2.828   1.423
   33THF     H5  913   1.007   2.762   1.487
   33THF     H6  914   0.975   2.812   1.655
   33THF     H7  915   0.805   2.532   1.458
   33THF     H8  916   0.759   2.487   1.625
   34THF     C1  917   1.986   0.836   1.304
   34THF     C2  918   1.965   0.712   1.214
   34THF     C3  919   1.827   0.741   1.149
   34THF     O1  920   1.800   0.879   1.173
   34THF     C4  921   1.919   0.942   1.219
   34THF     H1  922   1.938   0.829   1.402
   34THF     H2  923   2.092   0.859   1.322
   34THF     H3  924   1.966   0.619   1.272
   34THF     H4  925   2.043   0.704   1.138
   34THF     H5  926   1.824   0.720   1.042
   34THF     H6  927   1.745   0.683   1.195
   34THF     H7  928   1.982   0.967   1.133
   34THF     H8  929   1.894   1.033   1.276
   35THF     C1  930   2.041   0.873   0.712
   35THF     C2  931   2.035   0.843   0.863
   35THF     C3  932   2.156   0.750   0.873
   35THF     O1  933   2.256   0.823   0.800
   35THF     C4  934   2.193   0.890   0.690
   35THF     H1  935   2.003   0.787   0.655
   35THF     H2  936   1.983   0.961   0.684
   35THF     H3  937   1.941   0.795   0.891
   35THF     H4  938   2.048   0.933   0.923
   35THF     H5  939   2.191   0.731   0.975
   35THF     H6  940   2.137   0.654   0.823
   35THF     H7  941   2.225   0.995   0.695
   35THF     H8  942   2.227   0.848   0.595
   36THF     C1  943   0.542   3.272   0.588
   36THF     C2  944   0.432   3.239   0.690
   36THF     C3  945   0.395   3.097   0.643
   36THF     O1  946   0.523   3.037   0.619
   36THF     C4  947   0.619   3.138   0.581
   36THF     H1  948   0.502   3.300   0.490
   36THF     H2  949   0.607   3.354   0.622
   36THF     H3  950   0.347   3.309   0.685
   36THF     H4  951   0.470   3.238   0.793
   36THF     H5  952   0.341   3.039   0.718
   36THF     H6  953   0.337   3.099   0.550
   36THF     H7  954   0.701   3.134   0.654
   36THF     H8  955   0.659   3.117   0.481
   37THF     C1  956   2.749   1.369   0.259
   37THF     C2  957   2.612   1.301   0.246
   37THF     C3  958   2.556   1.325   0.389
   37THF     O1  959   2.615   1.449   0.433
   37THF     C4  960   2.705   1.496   0.332
   37THF     H1  961   2.817   1.310   0.322
   37THF     H2  962   2.797   1.389   0.163
   37THF     H3  963   2.619   1.195   0.219
   37THF     H4  964   2.552   1.351   0.169
   37THF     H5  965   2.446   1.332   0.392
   37THF     H6  966   2.588   1.246   0.458
   37THF     H7  967   2.651   1.565   0.266
   37THF     H8  968   2.790   1.549   0.378
   38THF     C1  969   3.158   0.356   0.435
   38THF     C2  970   3.029   0.309   0.506
   38THF     C3  971   3.030   0.157   0.475
   38THF     O1  972   3.167   0.122   0.448
   38THF     C4  973   3.250   0.238   0.471
   38THF     H1  974   3.144   0.365   0.327
   38THF     H2  975   3.195   0.452   0.474
   38THF     H3  976   2.939   0.359   0.470
   38THF     H4  977   3.034   0.326   0.614
   38THF     H5  978   2.991   0.097   0.558
   38THF     H6  979   2.972   0.134   0.385
   38THF     H7  980   3.279   0.240   0.577
   38THF     H8  981   3.339   0.232   0.408
   39THF     C1  982   0.192   1.175   0.896
   39THF     C2  983   0.190   1.032   0.954
   39THF     C3  984   0.342   1.001   0.964
   39THF     O1  985   0.408   1.127   0.978
   39THF     C4  986   0.312   1.234   0.973
   39THF     H1  987   0.210   1.177   0.788
   39THF     H2  988   0.099   1.230   0.915
   39THF     H3  989   0.138   0.961   0.890
   39THF     H4  990   0.143   1.029   1.053
   39THF     H5  991   0.366   0.936   1.049
   39THF     H6  992   0.380   0.953   0.873
   39THF     H7  993   0.284   1.260   1.076
   39THF     H8  994   0.356   1.322   0.924
   40THF     C1  995   0.384   3.132   0.242
   40THF     C2  996   0.390   2.984   0.284
   40THF     C3  997   0.471   2.922   0.168
   40THF     O1  998   0.557   3.028   0.120
   40THF     C4  999   0.529   3.149   0.191
   40THF     H1 1000   0.312   3.148   0.161
   40THF     H2 1001   0.359   3.198   0.325
   40THF     H3 1002   0.289   2.941   0.293
   40THF     H4 1003   0.441   2.969   0.379
   40THF     H5 1004   0.532   2.836   0.200
   40THF     H6 1005   0.407   2.891   0.085
   40THF     H7 1006   0.600   3.159   0.274
   40THF     H8 1007   0.541   3.236   0.124
   41THF     C1 1008   0.505   1.276   0.298
   41THF     C2 1009   0.383   1.313   0.385
   41THF     C3 1010   0.291   1.379   0.280
   41THF     O1 1011   0.319   1.313   0.155
   41THF     C4 1012   0.435   1.228   0.169
   41THF     H1 1013   0.570   1.362   0.277
   41THF     H2 1014   0.566   1.199   0.347
   41THF     H3 1015   0.407   1.379   0.469
   41THF     H4 1016   0.336   1.224   0.430
   41THF     H5 1017   0.185   1.369   0.305
   41THF     H6 1018   0.314   1.486   0.267
   41THF     H7 1019   0.402   1.124   0.177
   41THF     H8 1020   0.500   1.238   0.081
   42THF     C1 1021   3.229   2.349   0.848
   42THF     C2 1022   3.261   2.475   0.933
   42THF     C3 1023   3.131   2.483   1.014
   42THF     O1 1024   3.112   2.348   1.056
   42THF     C4 1025   3.155   2.260   0.950
   42THF     H1 1026   3.164   2.373   0.763
   42THF     H2 1027   3.317   2.299   0.806
   42THF     H3 1028   3.280   2.565   0.875
   42THF     H4 1029   3.346   2.458   1.001
   42THF     H5 1030   3.142   2.549   1.101
   42THF     H6 1031   3.045   2.516   0.955
   42THF     H7 1032   3.220   2.183   0.993
   42THF     H8 1033   3.068   2.213   0.905
   43THF     C1 1034   0.903   2.057   0.499
   43THF     C2 1035   0.780   1.966   0.486
   43THF     C3 1036   0.673   2.070   0.447
   43THF     O1 1037   0.740   2.161   0.359
   43THF     C4 1038   0.882   2.146   0.374
   43THF     H1 1039   0.901   2.115   0.592
   43THF     H2 1040   0.998   2.002   0.496
   43THF     H3 1041   0.755   1.914   0.579
   43THF     H4 1042   0.793   1.891   0.407
   43THF     H5 1043   0.588   2.027   0.393
   43THF     H6 1044   0.636   2.125   0.534
   43THF     H7 1045   0.918   2.097   0.283
   43THF     H8 1046   0.928   2.245   0.383
   44THF     C1 1047   3.188   1.162   1.160
   44THF     C2 1048   3.041   1.125   1.127
   44THF     C3 1049   2.972   1.247   1.188
   44THF     O1 1050   3.055   1.358   1.149
   44THF     C4 1051   3.188   1.312   1.121
   44THF     H1 1052   3.210   1.151   1.267
   44THF     H2 1053   3.262   1.104   1.105
   44THF     H3 1054   3.008   1.031   1.173
   44THF     H4 1055   3.023   1.118   1.019
   44THF     H5 1056   2.870   1.260   1.148
   44THF     H6 1057   2.967   1.242   1.297
   44THF     H7 1058   3.208   1.325   1.014
   44THF     H8 1059   3.262   1.370   1.179
   45THF     C1 1060   1.926   1.506   1.470
   45THF     C2 1061   1.855   1.636   1.514
   45THF     C3 1062   1.726   1.576   1.573
   45THF     O1 1063   1.764   1.444   1.618
   45THF     C4 1064   1.904   1.424   1.594
   45THF     H1 1065   1.876   1.454   1.387
   45THF     H2 1066   2.031   1.520   1.444
   45THF     H3 1067   1.836   1.707   1.433
   45THF     H4 1068   1.913   1.689   1.591
   45THF     H5 1069   1.687   1.637   1.656
   45THF     H6 1070   1.647   1.565   1.498
   45THF     H7 1071   1.964   1.465   1.675
   45THF     H8 1072   1.927   1.317   1.582
   46THF     C1 1073   2.223   3.003   0.452
   46THF     C2 1074   2.117   3.113   0.472
   46THF     C3 1075   1.993   3.031   0.437
   46THF     O1 1076   2.019   2.901   0.493
   46THF     C4 1077   2.157   2.888   0.528
   46THF     H1 1078   2.237   2.979   0.346
   46THF     H2 1079   2.320   3.028   0.496
   46THF     H3 1080   2.129   3.199   0.406
   46THF     H4 1081   2.115   3.149   0.576
   46THF     H5 1082   1.900   3.070   0.478
   46THF     H6 1083   1.983   3.021   0.328
   46THF     H7 1084   2.168   2.900   0.637
   46THF     H8 1085   2.194   2.789   0.499
   47THF     C1 1086   0.639   0.712   1.560
   47THF     C2 1087   0.700   0.759   1.427
   47THF     C3 1088   0.582   0.841   1.367
   47THF     O1 1089   0.498   0.878   1.477
   47THF     C4 1090   0.564   0.842   1.597
   47THF     H1 1091   0.569   0.628   1.546
   47THF     H2 1092   0.715   0.683   1.633
   47THF     H3 1093   0.732   0.675   1.364
   47THF     H4 1094   0.788   0.822   1.444
   47THF     H5 1095   0.615   0.931   1.314
   47THF     H6 1096   0.518   0.782   1.300
   47THF     H7 1097   0.633   0.922   1.626
   47THF     H8 1098   0.487   0.828   1.674
   48THF     C1 1099   2.796   3.067   0.174
   48THF     C2 1100   2.888   3.191   0.185
   48THF     C3 1101   2.850   3.244   0.324
   48THF     O1 1102   2.828   3.127   0.404
   48THF     C4 1103   2.788   3.017   0.320
   48THF     H1 1104   2.697   3.094   0.134
   48THF     H2 1105   2.836   2.989   0.108
   48THF     H3 1106   2.870   3.264   0.105
   48THF     H4 1107   2.994   3.164   0.180
   48THF     H5 1108   2.929   3.305   0.370
   48THF     H6 1109   2.758   3.304   0.322
   48THF     H7 1110   2.856   2.932   0.336
   48THF     H8 1111   2.688   2.983   0.348
   49THF     C1 1112   2.834   1.838   0.307
   49THF     C2 1113   2.964   1.785   0.243
   49THF     C3 1114   3.047   1.915   0.249
   49THF     O1 1115   3.024   1.961   0.383
   49THF     C4 1116   2.889   1.927   0.421
   49THF     H1 1117   2.776   1.895   0.235
   49THF     H2 1118   2.769   1.758   0.346
   49THF     H3 1119   2.950   1.749   0.141
   49THF     H4 1120   3.011   1.706   0.302
   49THF     H5 1121   3.154   1.900   0.232
   49THF     H6 1122   3.010   1.989   0.177
   49THF     H7 1123   2.893   1.872   0.516
   49THF     H8 1124   2.830   2.018   0.437
   50THF     C1 1125   0.642   0.825   0.592
   50THF     C2 1126   0.548   0.714   0.644
   50THF     C3 1127   0.609   0.595   0.569
   50THF     O1 1128   0.751   0.614   0.580
   50THF     C4 1129   0.778   0.753   0.606
   50THF     H1 1130   0.622   0.848   0.487
   50THF     H2 1131   0.636   0.918   0.650
   50THF     H3 1132   0.443   0.728   0.618
   50THF     H4 1133   0.554   0.701   0.753
   50THF     H5 1134   0.582   0.498   0.614
   50THF     H6 1135   0.582   0.594   0.463
   50THF     H7 1136   0.819   0.760   0.708
   50THF     H8 1137   0.853   0.789   0.535
   51THF     C1 1138   3.113   3.163   1.191
   51THF     C2 1139   3.235   3.151   1.285
   51THF     C3 1140   3.255   3.300   1.319
   51THF     O1 1141   3.122   3.348   1.342
   51THF     C4 1142   3.031   3.279   1.254
   51THF     H1 1143   3.144   3.190   1.089
   51THF     H2 1144   3.056   3.070   1.186
   51THF     H3 1145   3.321   3.106   1.236
   51THF     H4 1146   3.212   3.093   1.375
   51THF     H5 1147   3.316   3.315   1.410
   51THF     H6 1148   3.300   3.355   1.236
   51THF     H7 1149   2.948   3.240   1.314
   51THF     H8 1150   2.990   3.347   1.179
   52THF     C1 1151   2.320   2.501   1.570
   52THF     C2 1152   2.199   2.594   1.572
   52THF     C3 1153   2.103   2.523   1.477
   52THF     O1 1154   2.150   2.387   1.470
   52THF     C4 1155   2.252   2.365   1.567
   52THF     H1 1156   2.380   2.513   1.478
   52THF     H2 1157   2.386   2.513   1.657
   52THF     H3 1158   2.224   2.697   1.544
   52THF     H4 1159   2.153   2.598   1.671
   52THF     H5 1160   1.999   2.524   1.513
   52THF     H6 1161   2.107   2.566   1.377
   52THF     H7 1162   2.205   2.339   1.662
   52THF     H8 1163   2.318   2.284   1.535
   53THF     C1 1164   0.156   2.026   1.483
   53THF     C2 1165   0.285   2.023   1.566
   53THF     C3 1166   0.365   2.134   1.497
   53THF     O1 1167   0.266   2.238   1.491
   53THF     C4 1168   0.136   2.179   1.471
   53THF     H1 1169   0.171   1.978   1.386
   53THF     H2 1170   0.074   1.976   1.534
   53THF     H3 1171   0.334   1.925   1.569
   53THF     H4 1172   0.264   2.054   1.669
   53THF     H5 1173   0.451   2.168   1.555
   53THF     H6 1174   0.397   2.106   1.396
   53THF     H7 1175   0.070   2.217   1.550
   53THF     H8 1176   0.096   2.208   1.373
   54THF     C1 1177   2.613   1.020   1.438
   54THF     C2 1178   2.460   1.039   1.454
   54THF     C3 1179   2.452   1.042   1.604
   54THF     O1 1180   2.562   1.127   1.639
   54THF     C4 1181   2.668   1.116   1.545
   54THF     H1 1182   2.640   0.917   1.463
   54THF     H2 1183   2.652   1.042   1.338
   54THF     H3 1184   2.398   0.958   1.416
   54THF     H4 1185   2.423   1.135   1.415
   54THF     H5 1186   2.358   1.085   1.640
   54THF     H6 1187   2.467   0.942   1.647
   54THF     H7 1188   2.687   1.217   1.507
   54THF     H8 1189   2.759   1.080   1.595
   55THF     C1 1190   2.554   0.843   0.473
   55THF     C2 1191   2.551   0.935   0.349
   55THF     C3 1192   2.419   1.010   0.380
   55THF     O1 1193   2.429   1.039   0.521
   55THF     C4 1194   2.519   0.944   0.583
   55THF     H1 1195   2.479   0.764   0.468
   55THF     H2 1196   2.652   0.797   0.488
   55THF     H3 1197   2.548   0.880   0.255
   55THF     H4 1198   2.637   1.002   0.347
   55THF     H5 1199   2.408   1.103   0.323
   55THF     H6 1200   2.332   0.947   0.363
   55THF     H7 1201   2.610   0.997   0.615
   55THF     H8 1202   2.472   0.898   0.671
   56THF     C1 1203   0.758   1.274   0.657
   56THF     C2 1204   0.612   1.259   0.705
   56THF     C3 1205   0.563   1.406   0.707
   56THF     O1 1206   0.653   1.478   0.621
   56THF     C4 1207   0.741   1.386   0.554
   56THF     H1 1208   0.825   1.304   0.739
   56THF     H2 1209   0.798   1.182   0.613
   56THF     H3 1210   0.603   1.211   0.802
   56THF     H4 1211   0.553   1.200   0.633
   56THF     H5 1212   0.460   1.418   0.673
   56THF     H6 1213   0.568   1.453   0.806
   56THF     H7 1214   0.693   1.350   0.462
   56THF     H8 1215   0.834   1.436   0.527
   57THF     C1 1216   2.570   2.752   0.265
   57THF     C2 1217   2.444   2.739   0.353
   57THF     C3 1218   2.338   2.692   0.249
   57THF     O1 1219   2.413   2.630   0.143
   57THF     C4 1220   2.551   2.626   0.180
   57THF     H1 1221   2.568   2.843   0.203
   57THF     H2 1222   2.662   2.750   0.324
   57THF     H3 1223   2.418   2.834   0.402
   57THF     H4 1224   2.458   2.665   0.432
   57THF     H5 1225   2.267   2.620   0.291
   57THF     H6 1226   2.282   2.776   0.207
   57THF     H7 1227   2.568   2.537   0.241
   57THF     H8 1228   2.615   2.623   0.091
   58THF     C1 1229   2.391   0.372   0.268
   58THF     C2 1230   2.343   0.483   0.172
   58THF     C3 1231   2.393   0.608   0.248
   58THF     O1 1232   2.519   0.570   0.304
   58THF     C4 1233   2.531   0.427   0.304
   58THF     H1 1234   2.327   0.364   0.356
   58THF     H2 1235   2.395   0.273   0.221
   58THF     H3 1236   2.234   0.482   0.157
   58THF     H4 1237   2.391   0.474   0.074
   58THF     H5 1238   2.406   0.696   0.183
   58THF     H6 1239   2.328   0.636   0.332
   58THF     H7 1240   2.605   0.398   0.228
   58THF     H8 1241   2.566   0.394   0.402
   59THF     C1 1242   2.787   0.304   1.135
   59THF     C2 1243   2.660   0.263   1.059
   59THF     C3 1244   2.717   0.160   0.961
   59THF     O1 1245   2.824   0.093   1.030
   59THF     C4 1246   2.858   0.166   1.149
   59THF     H1 1247   2.846   0.376   1.077
   59THF     H2 1248   2.765   0.352   1.231
   59THF     H3 1249   2.611   0.347   1.009
   59THF     H4 1250   2.587   0.216   1.125
   59THF     H5 1251   2.641   0.087   0.930
   59THF     H6 1252   2.761   0.210   0.873
   59THF     H7 1253   2.820   0.108   1.234
   59THF     H8 1254   2.967   0.173   1.159
   60THF     C1 1255   3.027   1.473   0.549
   60THF     C2 1256   3.094   1.371   0.643
   60THF     C3 1257   3.050   1.424   0.781
   60THF     O1 1258   2.915   1.470   0.760
   60THF     C4 1259   2.890   1.487   0.618
   60THF     H1 1260   3.082   1.568   0.544
   60THF     H2 1261   3.017   1.437   0.446
   60THF     H3 1262   3.203   1.368   0.632
   60THF     H4 1263   3.055   1.271   0.624
   60THF     H5 1264   3.050   1.347   0.859
   60THF     H6 1265   3.112   1.508   0.815
   60THF     H7 1266   2.822   1.408   0.585
   60THF     H8 1267   2.843   1.584   0.599
   61THF     C1 1268   1.021   1.003   0.571
   61THF     C2 1269   1.123   0.888   0.562
   61THF     C3 1270   1.205   0.912   0.690
   61THF     O1 1271   1.104   0.942   0.787
   61THF     C4 1272   0.994   1.010   0.724
   61THF     H1 1273   1.062   1.098   0.535
   61THF     H2 1274   0.930   0.987   0.513
   61THF     H3 1275   1.185   0.894   0.471
   61THF     H4 1276   1.075   0.789   0.564
   61THF     H5 1277   1.263   0.825   0.721
   61THF     H6 1278   1.272   0.999   0.681
   61THF     H7 1279   0.901   0.958   0.751
   61THF     H8 1280   0.987   1.113   0.760
   62THF     C1 1281   2.444   1.991   1.448
   62THF     C2 1282   2.513   2.056   1.567
   62THF     C3 1283   2.616   1.944   1.601
   62THF     O1 1284   2.646   1.877   1.479
   62THF     C4 1285   2.571   1.938   1.375
   62THF     H1 1286   2.378   1.911   1.482
   62THF     H2 1287   2.385   2.062   1.389
   62THF     H3 1288   2.440   2.075   1.647
   62THF     H4 1289   2.561   2.150   1.542
   62THF     H5 1290   2.708   1.984   1.646
   62THF     H6 1291   2.573   1.868   1.667
   62THF     H7 1292   2.629   2.020   1.331
   62THF     H8 1293   2.554   1.863   1.297
   63THF     C1 1294   2.818   2.946   0.947
   63THF     C2 1295   2.903   2.858   1.039
   63THF     C3 1296   3.044   2.881   0.979
   63THF     O1 1297   3.043   3.013   0.923
   63THF     C4 1298   2.911   3.069   0.932
   63THF     H1 1299   2.799   2.899   0.850
   63THF     H2 1300   2.721   2.970   0.992
   63THF     H3 1301   2.871   2.754   1.037
   63THF     H4 1302   2.896   2.894   1.143
   63THF     H5 1303   3.125   2.873   1.053
   63THF     H6 1304   3.064   2.808   0.900
   63THF     H7 1305   2.905   3.135   1.019
   63THF     H8 1306   2.891   3.129   0.842
   64THF     C1 1307   1.265   0.716   0.275
   64THF     C2 1308   1.336   0.610   0.189
   64THF     C3 1309   1.220   0.510   0.164
   64THF     O1 1310   1.099   0.587   0.164
   64THF     C4 1311   1.127   0.721   0.209
   64THF     H1 1312   1.256   0.685   0.380
   64THF     H2 1313   1.316   0.814   0.273
   64THF     H3 1314   1.423   0.565   0.239
   64THF     H4 1315   1.376   0.654   0.097
   64THF     H5 1316   1.230   0.456   0.069
   64THF     H6 1317   1.212   0.436   0.245
   64THF     H7 1318   1.124   0.788   0.122
   64THF     H8 1319   1.051   0.751   0.282
   65THF     C1 1320   2.585   0.198   0.671
   65THF     C2 1321   2.708   0.253   0.597
   65THF     C3 1322   2.703   0.168   0.468
   65THF     O1 1323   2.564   0.147   0.441
   65THF     C4 1324   2.484   0.178   0.557
   65THF     H1 1325   2.609   0.101   0.717
   65THF     H2 1326   2.549   0.263   0.751
   65THF     H3 1327   2.800   0.239   0.654
   65THF     H4 1328   2.700   0.360   0.574
   65THF     H5 1329   2.750   0.219   0.383
   65THF     H6 1330   2.752   0.070   0.483
   65THF     H7 1331   2.428   0.270   0.537
   65THF     H8 1332   2.413   0.096   0.577
   66THF     C1 1333   1.662   1.015   0.958
   66THF     C2 1334   1.569   1.091   0.862
   66THF     C3 1335   1.620   1.232   0.895
   66THF     O1 1336   1.761   1.215   0.885
   66THF     C4 1337   1.796   1.083   0.924
   66THF     H1 1338   1.635   1.034   1.063
   66THF     H2 1339   1.665   0.907   0.945
   66THF     H3 1340   1.462   1.078   0.883
   66THF     H4 1341   1.587   1.068   0.756
   66THF     H5 1342   1.588   1.311   0.826
   66THF     H6 1343   1.594   1.260   0.997
   66THF     H7 1344   1.845   1.035   0.839
   66THF     H8 1345   1.866   1.088   1.009
   67THF     C1 1346   1.677   1.187   1.448
   67THF     C2 1347   1.754   1.090   1.541
   67THF     C3 1348   1.637   1.002   1.585
   67THF     O1 1349   1.560   0.982   1.466
   67THF     C4 1350   1.582   1.090   1.375
   67THF     H1 1351   1.620   1.261   1.506
   67THF     H2 1352   1.743   1.242   1.379
   67THF     H3 1353   1.801   1.140   1.626
   67THF     H4 1354   1.830   1.031   1.488
   67THF     H5 1355   1.667   0.906   1.628
   67THF     H6 1356   1.574   1.055   1.658
   67THF     H7 1357   1.627   1.049   1.284
   67THF     H8 1358   1.485   1.136   1.349
   68THF     C1 1359   1.508   1.253   0.538
   68THF     C2 1360   1.402   1.295   0.641
   68THF     C3 1361   1.276   1.278   0.555
   68THF     O1 1362   1.298   1.156   0.483
   68THF     C4 1363   1.439   1.128   0.476
   68THF     H1 1364   1.524   1.331   0.463
   68THF     H2 1365   1.605   1.229   0.583
   68THF     H3 1366   1.416   1.397   0.678
   68THF     H4 1367   1.397   1.227   0.726
   68THF     H5 1368   1.185   1.270   0.615
   68THF     H6 1369   1.266   1.362   0.485
   68THF     H7 1370   1.459   1.038   0.535
   68THF     H8 1371   1.467   1.109   0.372
   69THF     C1 1372   0.270   2.058   0.901
   69THF     C2 1373   0.304   2.006   1.043
   69THF     C3 1374   0.162   1.969   1.089
   69THF     O1 1375   0.102   1.906   0.974
   69THF     C4 1376   0.167   1.953   0.854
   69THF     H1 1377   0.224   2.157   0.906
   69THF     H2 1378   0.358   2.064   0.836
   69THF     H3 1379   0.351   2.082   1.106
   69THF     H4 1380   0.370   1.919   1.040
   69THF     H5 1381   0.161   1.900   1.174
   69THF     H6 1382   0.103   2.058   1.115
   69THF     H7 1383   0.216   1.867   0.806
   69THF     H8 1384   0.093   1.994   0.785
   70THF     C1 1385   0.306   2.472   1.319
   70THF     C2 1386   0.452   2.421   1.308
   70THF     C3 1387   0.458   2.405   1.156
   70THF     O1 1388   0.394   2.524   1.106
   70THF     C4 1389   0.302   2.575   1.205
   70THF     H1 1390   0.232   2.393   1.299
   70THF     H2 1391   0.283   2.516   1.417
   70THF     H3 1392   0.471   2.326   1.360
   70THF     H4 1393   0.524   2.494   1.347
   70THF     H5 1394   0.560   2.396   1.116
   70THF     H6 1395   0.401   2.317   1.123
   70THF     H7 1396   0.340   2.671   1.240
   70THF     H8 1397   0.203   2.589   1.161
   71THF     C1 1398   1.486   3.135   1.031
   71THF     C2 1399   1.460   3.082   0.890
   71THF     C3 1400   1.347   3.178   0.847
   71THF     O1 1401   1.382   3.305   0.905
   71THF     C4 1402   1.486   3.286   1.004
   71THF     H1 1403   1.406   3.107   1.100
   71THF     H2 1404   1.582   3.100   1.069
   71THF     H3 1405   1.434   2.976   0.892
   71THF     H4 1406   1.549   3.089   0.826
   71THF     H5 1407   1.338   3.188   0.738
   71THF     H6 1408   1.251   3.147   0.889
   71THF     H7 1409   1.582   3.316   0.961
   71THF     H8 1410   1.466   3.346   1.094
   72THF     C1 1411   1.785   1.795   0.397
   72THF     C2 1412   1.731   1.796   0.253
   72THF     C3 1413   1.851   1.731   0.180
   72THF     O1 1414   1.911   1.642   0.276
   72THF     C4 1415   1.852   1.658   0.405
   72THF     H1 1416   1.864   1.869   0.411
   72THF     H2 1417   1.708   1.811   0.473
   72THF     H3 1418   1.710   1.897   0.217
   72THF     H4 1419   1.640   1.737   0.243
   72THF     H5 1420   1.822   1.675   0.090
   72THF     H6 1421   1.928   1.804   0.151
   72THF     H7 1422   1.779   1.578   0.424
   72THF     H8 1423   1.930   1.653   0.481
   73THF     C1 1424   1.574   0.548   1.489
   73THF     C2 1425   1.664   0.600   1.599
   73THF     C3 1426   1.770   0.673   1.519
   73THF     O1 1427   1.693   0.738   1.417
   73THF     C4 1428   1.564   0.675   1.405
   73THF     H1 1429   1.623   0.465   1.436
   73THF     H2 1430   1.477   0.514   1.528
   73THF     H3 1431   1.708   0.517   1.656
   73THF     H4 1432   1.609   0.671   1.661
   73THF     H5 1433   1.824   0.748   1.578
   73THF     H6 1434   1.841   0.604   1.471
   73THF     H7 1435   1.488   0.744   1.446
   73THF     H8 1436   1.541   0.656   1.300
   74THF     C1 1437   1.318   1.827   0.986
   74THF     C2 1438   1.378   1.965   0.967
   74THF     C3 1439   1.271   2.037   0.886
   74THF     O1 1440   1.150   1.963   0.907
   74THF     C4 1441   1.173   1.872   1.015
   74THF     H1 1442   1.325   1.763   0.898
   74THF     H2 1443   1.369   1.774   1.068
   74THF     H3 1444   1.475   1.965   0.914
   74THF     H4 1445   1.392   2.012   1.065
   74THF     H5 1446   1.259   2.141   0.918
   74THF     H6 1447   1.294   2.033   0.779
   74THF     H7 1448   1.164   1.924   1.111
   74THF     H8 1449   1.099   1.791   1.010
   75THF     C1 1450   1.631   2.492   0.468
   75THF     C2 1451   1.607   2.402   0.345
   75THF     C3 1452   1.735   2.430   0.267
   75THF     O1 1453   1.838   2.437   0.368
   75THF     C4 1454   1.781   2.474   0.495
   75THF     H1 1455   1.611   2.597   0.445
   75THF     H2 1456   1.569   2.465   0.554
   75THF     H3 1457   1.519   2.431   0.288
   75THF     H4 1458   1.599   2.296   0.371
   75THF     H5 1459   1.758   2.353   0.192
   75THF     H6 1460   1.727   2.525   0.213
   75THF     H7 1461   1.801   2.394   0.568
   75THF     H8 1462   1.828   2.566   0.532
   76THF     C1 1463   0.558   0.362   0.181
   76THF     C2 1464   0.495   0.304   0.310
   76THF     C3 1465   0.555   0.162   0.310
   76THF     O1 1466   0.683   0.171   0.244
   76THF     C4 1467   0.701   0.305   0.193
   76THF     H1 1468   0.507   0.326   0.091
   76THF     H2 1469   0.557   0.472   0.179
   76THF     H3 1470   0.386   0.302   0.307
   76THF     H4 1471   0.525   0.362   0.398
   76THF     H5 1472   0.567   0.122   0.411
   76THF     H6 1473   0.492   0.092   0.253
   76THF     H7 1474   0.761   0.363   0.263
   76THF     H8 1475   0.753   0.301   0.096
   77THF     C1 1476   2.526   0.853   1.119
   77THF     C2 1477   2.437   0.978   1.121
   77THF     C3 1478   2.300   0.924   1.168
   77THF     O1 1479   2.322   0.793   1.221
   77THF     C4 1480   2.463   0.766   1.228
   77THF     H1 1481   2.524   0.803   1.022
   77THF     H2 1482   2.631   0.874   1.143
   77THF     H3 1483   2.428   1.026   1.023
   77THF     H4 1484   2.477   1.054   1.189
   77THF     H5 1485   2.254   0.989   1.244
   77THF     H6 1486   2.229   0.915   1.085
   77THF     H7 1487   2.501   0.793   1.327
   77THF     H8 1488   2.479   0.658   1.212
   78THF     C1 1489   1.542   1.965   1.571
   78THF     C2 1490   1.426   2.066   1.571
   78THF     C3 1491   1.347   2.007   1.454
   78THF     O1 1492   1.345   1.868   1.486
   78THF     C4 1493   1.468   1.832   1.551
   78THF     H1 1494   1.608   1.983   1.486
   78THF     H2 1495   1.603   1.966   1.661
   78THF     H3 1496   1.461   2.168   1.555
   78THF     H4 1497   1.365   2.063   1.662
   78THF     H5 1498   1.244   2.044   1.447
   78THF     H6 1499   1.399   2.022   1.358
   78THF     H7 1500   1.443   1.782   1.645
   78THF     H8 1501   1.526   1.763   1.488
   79THF     C1 1502   0.172   2.567   0.456
   79THF     C2 1503   0.180   2.703   0.384
   79THF     C3 1504   0.273   2.663   0.268
   79THF     O1 1505   0.218   2.539   0.224
   79THF     C4 1506   0.171   2.466   0.339
   79THF     H1 1507   0.261   2.551   0.519
   79THF     H2 1508   0.084   2.559   0.520
   79THF     H3 1509   0.222   2.781   0.449
   79THF     H4 1510   0.082   2.736   0.348
   79THF     H5 1511   0.271   2.735   0.185
   79THF     H6 1512   0.376   2.649   0.301
   79THF     H7 1513   0.070   2.429   0.317
   79THF     H8 1514   0.236   2.380   0.359
   80THF     C1 1515   0.459   3.091   1.314
   80THF     C2 1516   0.384   3.077   1.180
   80THF     C3 1517   0.354   2.926   1.184
   80THF     O1 1518   0.316   2.901   1.321
   80THF     C4 1519   0.377   3.000   1.407
   80THF     H1 1520   0.562   3.054   1.303
   80THF     H2 1521   0.465   3.195   1.349
   80THF     H3 1522   0.446   3.104   1.094
   80THF     H4 1523   0.292   3.136   1.177
   80THF     H5 1524   0.273   2.895   1.117
   80THF     H6 1525   0.443   2.866   1.161
   80THF     H7 1526   0.296   3.055   1.457
   80THF     H8 1527   0.438   2.950   1.484
   81THF     C1 1528   0.829   3.185   1.596
   81THF     C2 1529   0.965   3.248   1.563
   81THF     C3 1530   1.010   3.155   1.449
   81THF     O1 1531   0.890   3.098   1.393
   81THF     C4 1532   0.777   3.157   1.456
   81THF     H1 1533   0.842   3.091   1.651
   81THF     H2 1534   0.761   3.251   1.651
   81THF     H3 1535   1.037   3.245   1.645
   81THF     H4 1536   0.956   3.352   1.531
   81THF     H5 1537   1.066   3.209   1.372
   81THF     H6 1538   1.069   3.072   1.490
   81THF     H7 1539   0.748   3.249   1.404
   81THF     H8 1540   0.694   3.086   1.459
   82THF     C1 1541   1.458   2.836   0.430
   82THF     C2 1542   1.382   2.924   0.532
   82THF     C3 1543   1.236   2.890   0.492
   82THF     O1 1544   1.237   2.752   0.455
   82THF     C4 1545   1.373   2.708   0.441
   82THF     H1 1546   1.455   2.876   0.328
   82THF     H2 1547   1.563   2.821   0.458
   82THF     H3 1548   1.405   3.030   0.521
   82THF     H4 1549   1.404   2.894   0.635
   82THF     H5 1550   1.164   2.907   0.572
   82THF     H6 1551   1.205   2.947   0.403
   82THF     H7 1552   1.399   2.651   0.531
   82THF     H8 1553   1.383   2.643   0.353
   83THF     C1 1554   2.171   0.669   1.564
   83THF     C2 1555   2.323   0.652   1.548
   83THF     C3 1556   2.346   0.501   1.574
   83THF     O1 1557   2.215   0.442   1.591
   83THF     C4 1558   2.117   0.529   1.534
   83THF     H1 1559   2.143   0.700   1.665
   83THF     H2 1560   2.131   0.748   1.499
   83THF     H3 1561   2.381   0.716   1.614
   83THF     H4 1562   2.352   0.675   1.445
   83THF     H5 1563   2.397   0.455   1.489
   83THF     H6 1564   2.406   0.483   1.664
   83THF     H7 1565   2.108   0.512   1.426
   83THF     H8 1566   2.019   0.510   1.581
   84THF     C1 1567   1.851   1.631   0.769
   84THF     C2 1568   2.005   1.623   0.785
   84THF     C3 1569   2.041   1.770   0.760
   84THF     O1 1570   1.944   1.838   0.840
   84THF     C4 1571   1.819   1.766   0.835
   84THF     H1 1572   1.819   1.632   0.664
   84THF     H2 1573   1.799   1.546   0.815
   84THF     H3 1574   2.052   1.557   0.711
   84THF     H4 1575   2.035   1.590   0.884
   84THF     H5 1576   2.143   1.796   0.793
   84THF     H6 1577   2.029   1.798   0.655
   84THF     H7 1578   1.782   1.754   0.938
   84THF     H8 1579   1.743   1.824   0.780
   85THF     C1 1580   0.842   3.119   1.000
   85THF     C2 1581   0.980   3.145   1.065
   85THF     C3 1582   1.015   3.283   1.005
   85THF     O1 1583   0.888   3.352   0.989
   85THF     C4 1584   0.779   3.260   1.010
   85THF     H1 1585   0.851   3.085   0.896
   85THF     H2 1586   0.783   3.046   1.056
   85THF     H3 1587   1.054   3.068   1.042
   85THF     H4 1588   0.972   3.152   1.174
   85THF     H5 1589   1.081   3.342   1.070
   85THF     H6 1590   1.062   3.274   0.906
   85THF     H7 1591   0.738   3.277   1.110
   85THF     H8 1592   0.701   3.276   0.935
   86THF     C1 1593   1.988   2.717   0.274
   86THF     C2 1594   1.841   2.766   0.279
   86THF     C3 1595   1.815   2.789   0.130
   86THF     O1 1596   1.879   2.677   0.065
   86THF     C4 1597   1.990   2.631   0.145
   86THF     H1 1598   2.058   2.800   0.263
   86THF     H2 1599   2.018   2.660   0.362
   86THF     H3 1600   1.825   2.857   0.338
   86THF     H4 1601   1.774   2.692   0.324
   86THF     H5 1602   1.708   2.789   0.106
   86THF     H6 1603   1.861   2.882   0.096
   86THF     H7 1604   1.974   2.525   0.168
   86THF     H8 1605   2.084   2.641   0.090
   87THF     C1 1606   3.084   2.612   0.647
   87THF     C2 1607   2.958   2.635   0.561
   87THF     C3 1608   2.913   2.773   0.614
   87THF     O1 1609   3.032   2.841   0.660
   87THF     C4 1610   3.145   2.753   0.649
   87THF     H1 1611   3.057   2.581   0.749
   87THF     H2 1612   3.152   2.538   0.604
   87THF     H3 1613   2.882   2.558   0.577
   87THF     H4 1614   2.981   2.638   0.454
   87THF     H5 1615   2.862   2.835   0.538
   87THF     H6 1616   2.846   2.761   0.700
   87THF     H7 1617   3.200   2.775   0.556
   87THF     H8 1618   3.213   2.770   0.733
   88THF     C1 1619   2.282   1.575   1.510
   88THF     C2 1620   2.273   1.436   1.570
   88THF     C3 1621   2.422   1.399   1.575
   88THF     O1 1622   2.489   1.520   1.612
   88THF     C4 1623   2.413   1.633   1.566
   88THF     H1 1624   2.289   1.561   1.401
   88THF     H2 1625   2.196   1.639   1.532
   88THF     H3 1626   2.216   1.365   1.510
   88THF     H4 1627   2.223   1.437   1.667
   88THF     H5 1628   2.442   1.322   1.650
   88THF     H6 1629   2.460   1.366   1.477
   88THF     H7 1630   2.395   1.699   1.652
   88THF     H8 1631   2.472   1.688   1.491
   89THF     C1 1632   1.380   3.268   0.248
   89THF     C2 1633   1.244   3.213   0.296
   89THF     C3 1634   1.212   3.117   0.179
   89THF     O1 1635   1.337   3.052   0.153
   89THF     C4 1636   1.446   3.139   0.190
   89THF     H1 1637   1.368   3.344   0.170
   89THF     H2 1638   1.439   3.312   0.329
   89THF     H3 1639   1.168   3.291   0.308
   89THF     H4 1640   1.253   3.161   0.391
   89THF     H5 1641   1.136   3.042   0.204
   89THF     H6 1642   1.180   3.171   0.089
   89THF     H7 1643   1.507   3.088   0.265
   89THF     H8 1644   1.509   3.160   0.102
   90THF     C1 1645   0.162   2.026   0.358
   90THF     C2 1646   0.139   2.102   0.490
   90THF     C3 1647   0.282   2.108   0.546
   90THF     O1 1648   0.368   2.118   0.432
   90THF     C4 1649   0.294   2.092   0.311
   90THF     H1 1650   0.174   1.918   0.374
   90THF     H2 1651   0.081   2.040   0.286
   90THF     H3 1652   0.069   2.050   0.557
   90THF     H4 1653   0.099   2.203   0.472
   90THF     H5 1654   0.299   2.195   0.611
   90THF     H6 1655   0.309   2.017   0.601
   90THF     H7 1656   0.275   2.187   0.260
   90THF     H8 1657   0.353   2.028   0.244
   91THF     C1 1658   0.778   0.129   0.628
   91THF     C2 1659   0.918   0.188   0.609
   91THF     C3 1660   0.890   0.308   0.513
   91THF     O1 1661   0.748   0.327   0.517
   91THF     C4 1662   0.695   0.258   0.630
   91THF     H1 1663   0.751   0.066   0.543
   91THF     H2 1664   0.768   0.070   0.720
   91THF     H3 1665   0.988   0.115   0.566
   91THF     H4 1666   0.959   0.222   0.704
   91THF     H5 1667   0.941   0.400   0.544
   91THF     H6 1668   0.920   0.286   0.410
   91THF     H7 1669   0.711   0.318   0.720
   91THF     H8 1670   0.587   0.241   0.616
   92THF     C1 1671   1.178   1.229   1.523
   92THF     C2 1672   1.137   1.084   1.556
   92THF     C3 1673   1.274   1.019   1.565
   92THF     O1 1674   1.351   1.118   1.634
   92THF     C4 1675   1.321   1.245   1.577
   92THF     H1 1676   1.178   1.240   1.414
   92THF     H2 1677   1.112   1.305   1.566
   92THF     H3 1678   1.074   1.039   1.479
   92THF     H4 1679   1.082   1.079   1.651
   92THF     H5 1680   1.275   0.924   1.622
   92THF     H6 1681   1.318   1.003   1.466
   92THF     H7 1682   1.330   1.324   1.653
   92THF     H8 1683   1.393   1.267   1.497
   93THF     C1 1684   0.799   0.790   1.058
   93THF     C2 1685   0.692   0.860   0.971
   93THF     C3 1686   0.691   1.000   1.033
   93THF     O1 1687   0.824   1.022   1.083
   93THF     C4 1688   0.902   0.903   1.067
   93THF     H1 1689   0.762   0.764   1.157
   93THF     H2 1690   0.840   0.700   1.011
   93THF     H3 1691   0.593   0.812   0.975
   93THF     H4 1692   0.722   0.866   0.866
   93THF     H5 1693   0.665   1.078   0.961
   93THF     H6 1694   0.621   1.006   1.117
   93THF     H7 1695   0.962   0.912   0.976
   93THF     H8 1696   0.970   0.892   1.153
   94THF     C1 1697   0.688   2.014   1.117
   94THF     C2 1698   0.696   2.083   0.980
   94THF     C3 1699   0.845   2.125   0.977
   94THF     O1 1700   0.914   2.028   1.058
   94THF     C4 1701   0.820   1.936   1.114
   94THF     H1 1702   0.685   2.086   1.199
   94THF     H2 1703   0.600   1.949   1.126
   94THF     H3 1704   0.628   2.169   0.973
   94THF     H4 1705   0.673   2.015   0.898
   94THF     H5 1706   0.889   2.126   0.877
   94THF     H6 1707   0.861   2.223   1.023
   94THF     H7 1708   0.815   1.847   1.049
   94THF     H8 1709   0.856   1.906   1.213
   95THF     C1 1710   2.337   1.570   0.179
   95THF     C2 1711   2.267   1.432   0.169
   95THF     C3 1712   2.181   1.434   0.298
   95THF     O1 1713   2.176   1.571   0.340
   95THF     C4 1714   2.217   1.651   0.229
   95THF     H1 1715   2.418   1.569   0.253
   95THF     H2 1716   2.376   1.609   0.084
   95THF     H3 1717   2.335   1.346   0.167
   95THF     H4 1718   2.202   1.424   0.081
   95THF     H5 1719   2.079   1.397   0.281
   95THF     H6 1720   2.229   1.377   0.378
   95THF     H7 1721   2.136   1.657   0.155
   95THF     H8 1722   2.243   1.753   0.263
   96THF     C1 1723   2.372   1.775   0.537
   96THF     C2 1724   2.516   1.798   0.485
   96THF     C3 1725   2.486   1.867   0.351
   96THF     O1 1726   2.373   1.952   0.379
   96THF     C4 1727   2.296   1.898   0.488
   96THF     H1 1728   2.329   1.683   0.496
   96THF     H2 1729   2.366   1.768   0.646
   96THF     H3 1730   2.571   1.704   0.472
   96THF     H4 1731   2.576   1.861   0.550
   96THF     H5 1732   2.569   1.929   0.315
   96THF     H6 1733   2.459   1.796   0.272
   96THF     H7 1734   2.288   1.974   0.567
   96THF     H8 1735   2.194   1.872   0.456
   97THF     C1 1736   2.330   2.656   0.831
   97THF     C2 1737   2.434   2.698   0.725
   97THF     C3 1738   2.552   2.737   0.816
   97THF     O1 1739   2.543   2.649   0.928
   97THF     C4 1740   2.422   2.571   0.919
   97THF     H1 1741   2.291   2.742   0.886
   97THF     H2 1742   2.246   2.599   0.791
   97THF     H3 1743   2.398   2.779   0.660
   97THF     H4 1744   2.463   2.614   0.661
   97THF     H5 1745   2.649   2.725   0.767
   97THF     H6 1746   2.543   2.840   0.854
   97THF     H7 1747   2.444   2.474   0.873
   97THF     H8 1748   2.383   2.554   1.020
   98THF     C1 1749   1.891   3.144   1.145
   98THF     C2 1750   1.903   3.274   1.227
   98THF     C3 1751   1.755   3.299   1.262
   98THF     O1 1752   1.699   3.169   1.282
   98THF     C4 1753   1.787   3.069   1.230
   98THF     H1 1754   1.852   3.162   1.044
   98THF     H2 1755   1.985   3.090   1.137
   98THF     H3 1756   1.947   3.357   1.170
   98THF     H4 1757   1.962   3.260   1.318
   98THF     H5 1758   1.741   3.360   1.352
   98THF     H6 1759   1.701   3.347   1.178
   98THF     H7 1760   1.833   3.017   1.315
   98THF     H8 1761   1.731   2.993   1.174
   99THF     C1 1762   3.262   0.361   0.988
   99THF     C2 1763   3.117   0.405   1.014
   99THF     C3 1764   3.054   0.364   0.879
   99THF     O1 1765   3.117   0.240   0.843
   99THF     C4 1766   3.238   0.224   0.920
   99THF     H1 1767   3.314   0.431   0.921
   99THF     H2 1768   3.320   0.353   1.080
   99THF     H3 1769   3.107   0.512   1.034
   99THF     H4 1770   3.074   0.351   1.099
   99THF     H5 1771   2.945   0.351   0.883
   99THF     H6 1772   3.079   0.439   0.803
   99THF     H7 1773   3.220   0.145   0.994
   99THF     H8 1774   3.319   0.194   0.853
  100THF     C1 1775   1.511   2.414   0.843
  100THF     C2 1776   1.608   2.350   0.941
  100THF     C3 1777   1.740   2.408   0.886
  100THF     O1 1778   1.706   2.538   0.833
  100THF     C4 1779   1.565   2.557   0.839
  100THF     H1 1780   1.519   2.366   0.744
  100THF     H2 1781   1.407   2.405   0.877
  100THF     H3 1782   1.605   2.241   0.936
  100THF     H4 1783   1.590   2.380   1.045
  100THF     H5 1784   1.817   2.414   0.964
  100THF     H6 1785   1.781   2.351   0.803
  100THF     H7 1786   1.541   2.613   0.930
  100THF     H8 1787   1.531   2.614   0.751
  101THF     C1 1788   1.386   1.893   0.525
  101THF     C2 1789   1.450   1.808   0.637
  101THF     C3 1790   1.337   1.706   0.652
  101THF     O1 1791   1.319   1.665   0.517
  101THF     C4 1792   1.324   1.782   0.435
  101THF     H1 1793   1.308   1.958   0.565
  101THF     H2 1794   1.459   1.955   0.472
  101THF     H3 1795   1.471   1.865   0.728
  101THF     H4 1796   1.543   1.758   0.605
  101THF     H5 1797   1.363   1.620   0.715
  101THF     H6 1798   1.245   1.752   0.688
  101THF     H7 1799   1.388   1.760   0.348
  101THF     H8 1800   1.224   1.808   0.399
  102THF     C1 1801   2.152   2.292   1.162
  102THF     C2 1802   2.193   2.360   1.031
  102THF     C3 1803   2.108   2.284   0.929
  102THF     O1 1804   1.988   2.248   1.001
  102THF     C4 1805   2.000   2.286   1.139
  102THF     H1 1806   2.194   2.192   1.175
  102THF     H2 1807   2.182   2.354   1.247
  102THF     H3 1808   2.301   2.350   1.014
  102THF     H4 1809   2.169   2.467   1.031
  102THF     H5 1810   2.083   2.344   0.841
  102THF     H6 1811   2.157   2.191   0.898
  102THF     H7 1812   1.951   2.383   1.153
  102THF     H8 1813   1.951   2.212   1.203
  103THF     C1 1814   0.741   1.014   0.259
  103THF     C2 1815   0.860   0.932   0.207
  103THF     C3 1816   0.801   0.788   0.217
  103THF     O1 1817   0.661   0.801   0.190
  103THF     C4 1818   0.625   0.941   0.188
  103THF     H1 1819   0.732   1.009   0.368
  103THF     H2 1820   0.749   1.120   0.230
  103THF     H3 1821   0.950   0.947   0.268
  103THF     H4 1822   0.885   0.957   0.104
  103THF     H5 1823   0.847   0.719   0.146
  103THF     H6 1824   0.813   0.747   0.318
  103THF     H7 1825   0.616   0.974   0.083
  103THF     H8 1826   0.528   0.954   0.237
  104THF     C1 1827   1.219   2.411   0.671
  104THF     C2 1828   1.166   2.422   0.526
  104THF     C3 1829   1.291   2.370   0.454
  104THF     O1 1830   1.338   2.261   0.535
  104THF     C4 1831   1.272   2.267   0.662
  104THF     H1 1832   1.299   2.485   0.688
  104THF     H2 1833   1.145   2.425   0.750
  104THF     H3 1834   1.139   2.524   0.497
  104THF     H4 1835   1.080   2.356   0.507
  104THF     H5 1836   1.271   2.336   0.351
  104THF     H6 1837   1.369   2.447   0.451
  104THF     H7 1838   1.190   2.194   0.662
  104THF     H8 1839   1.343   2.241   0.742
  105THF     C1 1840   1.086   2.771   0.863
  105THF     C2 1841   1.128   2.680   0.979
  105THF     C3 1842   1.278   2.663   0.954
  105THF     O1 1843   1.315   2.772   0.869
  105THF     C4 1844   1.206   2.864   0.865
  105THF     H1 1845   1.080   2.715   0.769
  105THF     H2 1846   0.990   2.822   0.880
  105THF     H3 1847   1.075   2.584   0.976
  105THF     H4 1848   1.113   2.726   1.077
  105THF     H5 1849   1.337   2.663   1.046
  105THF     H6 1850   1.295   2.569   0.899
  105THF     H7 1851   1.208   2.926   0.956
  105THF     H8 1852   1.213   2.930   0.777
  106THF     C1 1853   1.957   0.980   0.385
  106THF     C2 1854   1.833   0.904   0.437
  106THF     C3 1855   1.744   0.891   0.311
  106THF     O1 1856   1.823   0.937   0.200
  106THF     C4 1857   1.962   0.936   0.238
  106THF     H1 1858   1.941   1.088   0.394
  106THF     H2 1859   2.049   0.955   0.439
  106THF     H3 1860   1.783   0.959   0.518
  106THF     H4 1861   1.858   0.805   0.476
  106THF     H5 1862   1.713   0.787   0.293
  106THF     H6 1863   1.653   0.952   0.319
  106THF     H7 1864   2.003   0.835   0.225
  106THF     H8 1865   2.019   1.006   0.175
  107THF     C1 1866   3.023   1.959   0.891
  107THF     C2 1867   3.013   1.806   0.895
  107THF     C3 1868   3.000   1.780   0.745
  107THF     O1 1869   3.094   1.868   0.683
  107THF     C4 1870   3.117   1.980   0.769
  107THF     H1 1871   2.925   2.005   0.873
  107THF     H2 1872   3.064   2.000   0.984
  107THF     H3 1873   2.925   1.771   0.950
  107THF     H4 1874   3.102   1.759   0.936
  107THF     H5 1875   3.028   1.677   0.719
  107THF     H6 1876   2.898   1.801   0.709
  107THF     H7 1877   3.223   1.978   0.798
  107THF     H8 1878   3.097   2.073   0.715
  108THF     C1 1879   0.884   2.415   0.697
  108THF     C2 1880   0.749   2.396   0.630
  108THF     C3 1881   0.677   2.318   0.741
  108THF     O1 1882   0.713   2.390   0.860
  108THF     C4 1883   0.843   2.451   0.840
  108THF     H1 1884   0.943   2.322   0.696
  108THF     H2 1885   0.942   2.495   0.650
  108THF     H3 1886   0.758   2.338   0.538
  108THF     H4 1887   0.699   2.491   0.608
  108THF     H5 1888   0.568   2.317   0.728
  108THF     H6 1889   0.713   2.215   0.747
  108THF     H7 1890   0.833   2.560   0.851
  108THF     H8 1891   0.914   2.414   0.915
  109THF     C1 1892   1.836   2.797   0.708
  109THF     C2 1893   1.886   2.928   0.774
  109THF     C3 1894   1.972   2.871   0.886
  109THF     O1 1895   2.045   2.767   0.820
  109THF     C4 1896   1.956   2.700   0.729
  109THF     H1 1897   1.746   2.763   0.760
  109THF     H2 1898   1.808   2.809   0.603
  109THF     H3 1899   1.804   2.990   0.812
  109THF     H4 1900   1.949   2.989   0.707
  109THF     H5 1901   2.041   2.943   0.930
  109THF     H6 1902   1.907   2.829   0.964
  109THF     H7 1903   2.011   2.681   0.635
  109THF     H8 1904   1.928   2.602   0.770
  110THF     C1 1905   2.583   3.285   1.252
  110THF     C2 1906   2.430   3.261   1.245
  110THF     C3 1907   2.420   3.169   1.120
  110THF     O1 1908   2.548   3.103   1.109
  110THF     C4 1909   2.633   3.143   1.218
  110THF     H1 1910   2.616   3.358   1.178
  110THF     H2 1911   2.615   3.319   1.351
  110THF     H3 1912   2.373   3.353   1.233
  110THF     H4 1913   2.393   3.211   1.335
  110THF     H5 1914   2.340   3.094   1.129
  110THF     H6 1915   2.405   3.227   1.029
  110THF     H7 1916   2.619   3.074   1.301
  110THF     H8 1917   2.738   3.140   1.187
  111THF     C1 1918   2.261   1.295   1.227
  111THF     C2 1919   2.224   1.311   1.079
  111THF     C3 1920   2.115   1.203   1.066
  111THF     O1 1921   2.057   1.189   1.196
  111THF     C4 1922   2.123   1.274   1.288
  111THF     H1 1923   2.324   1.206   1.242
  111THF     H2 1924   2.313   1.382   1.269
  111THF     H3 1925   2.309   1.292   1.012
  111THF     H4 1926   2.184   1.410   1.057
  111THF     H5 1927   2.035   1.231   0.995
  111THF     H6 1928   2.157   1.107   1.035
  111THF     H7 1929   2.068   1.369   1.294
  111THF     H8 1930   2.124   1.225   1.387
  112THF     C1 1931   2.019   1.323   0.546
  112THF     C2 1932   2.134   1.231   0.590
  112THF     C3 1933   2.141   1.259   0.741
  112THF     O1 1934   2.012   1.312   0.776
  112THF     C4 1935   1.924   1.301   0.663
  112THF     H1 1936   2.049   1.428   0.538
  112THF     H2 1937   1.974   1.294   0.450
  112THF     H3 1938   2.231   1.250   0.541
  112THF     H4 1939   2.109   1.126   0.571
  112THF     H5 1940   2.161   1.169   0.801
  112THF     H6 1941   2.216   1.335   0.764
  112THF     H7 1942   1.880   1.200   0.661
  112THF     H8 1943   1.843   1.375   0.669
  113THF     C1 1944   3.229   1.080   0.762
  113THF     C2 1945   3.160   1.016   0.639
  113THF     C3 1946   3.221   0.873   0.635
  113THF     O1 1947   3.280   0.852   0.766
  113THF     C4 1948   3.239   0.957   0.854
  113THF     H1 1949   3.327   1.121   0.738
  113THF     H2 1950   3.169   1.159   0.808
  113THF     H3 1951   3.181   1.071   0.546
  113THF     H4 1952   3.051   1.013   0.650
  113THF     H5 1953   3.146   0.796   0.614
  113THF     H6 1954   3.300   0.865   0.560
  113THF     H7 1955   3.142   0.933   0.899
  113THF     H8 1956   3.313   0.969   0.934
  114THF     C1 1957   1.529   0.308   0.849
  114THF     C2 1958   1.662   0.299   0.770
  114THF     C3 1959   1.733   0.180   0.837
  114THF     O1 1960   1.628   0.096   0.886
  114THF     C4 1961   1.499   0.158   0.870
  114THF     H1 1962   1.539   0.360   0.945
  114THF     H2 1963   1.448   0.359   0.795
  114THF     H3 1964   1.723   0.390   0.779
  114THF     H4 1965   1.646   0.279   0.664
  114THF     H5 1966   1.796   0.125   0.767
  114THF     H6 1967   1.794   0.212   0.923
  114THF     H7 1968   1.449   0.113   0.784
  114THF     H8 1969   1.437   0.140   0.959
  115THF     C1 1970   2.644   3.139   0.729
  115THF     C2 1971   2.523   3.075   0.662
  115THF     C3 1972   2.411   3.149   0.739
  115THF     O1 1973   2.459   3.284   0.747
  115THF     C4 1974   2.602   3.286   0.725
  115THF     H1 1975   2.652   3.107   0.834
  115THF     H2 1976   2.738   3.119   0.677
  115THF     H3 1977   2.520   2.966   0.674
  115THF     H4 1978   2.523   3.097   0.554
  115THF     H5 1979   2.314   3.146   0.689
  115THF     H6 1980   2.400   3.109   0.840
  115THF     H7 1981   2.622   3.330   0.627
  115THF     H8 1982   2.652   3.344   0.804
  116THF     C1 1983   2.703   1.499   1.134
  116THF     C2 1984   2.566   1.432   1.153
  116THF     C3 1985   2.607   1.311   1.238
  116THF     O1 1986   2.711   1.359   1.324
  116THF     C4 1987   2.757   1.486   1.278
  116THF     H1 1988   2.767   1.446   1.063
  116THF     H2 1989   2.696   1.603   1.101
  116THF     H3 1990   2.517   1.402   1.059
  116THF     H4 1991   2.497   1.497   1.207
  116THF     H5 1992   2.524   1.273   1.300
  116THF     H6 1993   2.647   1.228   1.179
  116THF     H7 1994   2.717   1.564   1.343
  116THF     H8 1995   2.866   1.487   1.281
  117THF     C1 1996   0.556   0.509   1.001
  117THF     C2 1997   0.617   0.369   1.028
  117THF     C3 1998   0.707   0.403   1.148
  117THF     O1 1999   0.622   0.484   1.230
  117THF     C4 2000   0.537   0.563   1.144
  117THF     H1 2001   0.625   0.572   0.944
  117THF     H2 2002   0.461   0.505   0.945
  117THF     H3 2003   0.673   0.330   0.943
  117THF     H4 2004   0.540   0.296   1.055
  117THF     H5 2005   0.739   0.314   1.204
  117THF     H6 2006   0.795   0.461   1.120
  117THF     H7 2007   0.434   0.555   1.180
  117THF     H8 2008   0.567   0.669   1.149
  118THF     C1 2009   0.228   1.589   1.173
  118THF     C2 2010   0.173   1.568   1.031
  118THF     C3 2011   0.295   1.614   0.948
  118THF     O1 2012   0.410   1.570   1.022
  118THF     C4 2013   0.371   1.533   1.155
  118THF     H1 2014   0.231   1.695   1.203
  118THF     H2 2015   0.169   1.536   1.249
  118THF     H3 2016   0.084   1.628   1.011
  118THF     H4 2017   0.149   1.463   1.012
  118THF     H5 2018   0.298   1.572   0.847
  118THF     H6 2019   0.300   1.724   0.941
  118THF     H7 2020   0.375   1.423   1.164
  118THF     H8 2021   0.442   1.573   1.228
  119THF     C1 2022   2.234   0.394   1.237
  119THF     C2 2023   2.103   0.345   1.174
  119THF     C3 2024   2.141   0.351   1.026
  119THF     O1 2025   2.269   0.286   1.027
  119THF     C4 2026   2.340   0.328   1.145
  119THF     H1 2027   2.243   0.503   1.235
  119THF     H2 2028   2.244   0.360   1.341
  119THF     H3 2029   2.018   0.411   1.198
  119THF     H4 2030   2.079   0.243   1.205
  119THF     H5 2031   2.073   0.297   0.959
  119THF     H6 2032   2.152   0.455   0.992
  119THF     H7 2033   2.383   0.239   1.191
  119THF     H8 2034   2.420   0.399   1.119
  120THF     C1 2035   3.172   1.630   1.370
  120THF     C2 2036   3.161   1.735   1.257
  120THF     C3 2037   3.014   1.715   1.218
  120THF     O1 2038   2.947   1.703   1.344
  120THF     C4 2039   3.036   1.647   1.442
  120THF     H1 2040   3.182   1.529   1.330
  120THF     H2 2041   3.257   1.649   1.437
  120THF     H3 2042   3.229   1.716   1.173
  120THF     H4 2043   3.179   1.837   1.293
  120THF     H5 2044   2.972   1.801   1.164
  120THF     H6 2045   2.998   1.624   1.159
  120THF     H7 2046   3.042   1.718   1.526
  120THF     H8 2047   2.995   1.552   1.479
  121THF     C1 2048   1.822   1.967   1.124
  121THF     C2 2049   1.776   2.010   1.262
  121THF     C3 2050   1.681   2.127   1.228
  121THF     O1 2051   1.612   2.078   1.114
  121THF     C4 2052   1.689   1.974   1.050
  121THF     H1 2053   1.897   2.032   1.079
  121THF     H2 2054   1.863   1.865   1.125
  121THF     H3 2055   1.862   2.043   1.321
  121THF     H4 2056   1.725   1.929   1.315
  121THF     H5 2057   1.609   2.150   1.307
  121THF     H6 2058   1.735   2.218   1.200
  121THF     H7 2059   1.633   1.880   1.062
  121THF     H8 2060   1.702   1.995   0.943
  122THF     C1 2061   2.479   3.171   0.297
  122THF     C2 2062   2.450   3.199   0.148
  122THF     C3 2063   2.303   3.243   0.160
  122THF     O1 2064   2.304   3.332   0.272
  122THF     C4 2065   2.402   3.285   0.368
  122THF     H1 2066   2.446   3.071   0.325
  122THF     H2 2067   2.585   3.178   0.322
  122THF     H3 2068   2.463   3.110   0.085
  122THF     H4 2069   2.513   3.279   0.109
  122THF     H5 2070   2.266   3.295   0.071
  122THF     H6 2071   2.237   3.158   0.182
  122THF     H7 2072   2.470   3.368   0.391
  122THF     H8 2073   2.354   3.254   0.461
  123THF     C1 2074   0.188   0.580   0.502
  123THF     C2 2075   0.261   0.481   0.595
  123THF     C3 2076   0.190   0.349   0.560
  123THF     O1 2077   0.154   0.361   0.421
  123THF     C4 2078   0.180   0.495   0.374
  123THF     H1 2079   0.088   0.606   0.540
  123THF     H2 2080   0.244   0.673   0.486
  123THF     H3 2081   0.253   0.508   0.701
  123THF     H4 2082   0.368   0.474   0.571
  123THF     H5 2083   0.254   0.261   0.575
  123THF     H6 2084   0.098   0.337   0.619
  123THF     H7 2085   0.275   0.496   0.320
  123THF     H8 2086   0.100   0.527   0.306
  124THF     C1 2087   0.466   1.798   0.434
  124THF     C2 2088   0.507   1.783   0.285
  124THF     C3 2089   0.599   1.661   0.299
  124THF     O1 2090   0.523   1.576   0.385
  124THF     C4 2091   0.439   1.653   0.473
  124THF     H1 2092   0.545   1.837   0.498
  124THF     H2 2093   0.377   1.860   0.449
  124THF     H3 2094   0.559   1.870   0.244
  124THF     H4 2095   0.421   1.762   0.221
  124THF     H5 2096   0.618   1.610   0.204
  124THF     H6 2097   0.694   1.685   0.347
  124THF     H7 2098   0.335   1.624   0.455
  124THF     H8 2099   0.464   1.633   0.578
  125THF     C1 2100   2.975   2.228   1.356
  125THF     C2 2101   3.014   2.086   1.307
  125THF     C3 2102   2.942   1.995   1.411
  125THF     O1 2103   2.864   2.084   1.492
  125THF     C4 2104   2.836   2.197   1.412
  125THF     H1 2105   3.042   2.262   1.436
  125THF     H2 2106   2.975   2.304   1.277
  125THF     H3 2107   3.123   2.071   1.305
  125THF     H4 2108   2.977   2.066   1.206
  125THF     H5 2109   2.873   1.926   1.361
  125THF     H6 2110   3.011   1.939   1.475
  125THF     H7 2111   2.765   2.172   1.332
  125THF     H8 2112   2.791   2.274   1.477
  126THF     C1 2113   1.797   1.243   0.154
  126THF     C2 2114   1.812   1.388   0.199
  126THF     C3 2115   1.667   1.440   0.187
  126THF     O1 2116   1.584   1.324   0.204
  126THF     C4 2117   1.666   1.209   0.227
  126THF     H1 2118   1.787   1.233   0.045
  126THF     H2 2119   1.883   1.184   0.187
  126THF     H3 2120   1.884   1.442   0.137
  126THF     H4 2121   1.845   1.393   0.303
  126THF     H5 2122   1.642   1.514   0.264
  126THF     H6 2123   1.648   1.483   0.088
  126THF     H7 2124   1.683   1.198   0.335
  126THF     H8 2125   1.616   1.120   0.187
  127THF     C1 2126   0.309   0.292   1.277
  127THF     C2 2127   0.249   0.373   1.394
  127THF     C3 2128   0.187   0.494   1.319
  127THF     O1 2129   0.156   0.446   1.186
  127THF     C4 2130   0.196   0.309   1.173
  127THF     H1 2131   0.403   0.335   1.241
  127THF     H2 2132   0.328   0.187   1.302
  127THF     H3 2133   0.325   0.404   1.467
  127THF     H4 2134   0.173   0.316   1.448
  127THF     H5 2135   0.096   0.531   1.368
  127THF     H6 2136   0.258   0.577   1.310
  127THF     H7 2137   0.110   0.244   1.195
  127THF     H8 2138   0.229   0.290   1.070
  128THF     C1 2139   1.254   2.925   1.332
  128THF     C2 2140   1.380   2.848   1.375
  128THF     C3 2141   1.488   2.938   1.317
  128THF     O1 2142   1.442   3.070   1.349
  128THF     C4 2143   1.300   3.070   1.360
  128THF     H1 2144   1.232   2.909   1.226
  128THF     H2 2145   1.166   2.895   1.389
  128THF     H3 2146   1.382   2.747   1.334
  128THF     H4 2147   1.391   2.846   1.484
  128THF     H5 2148   1.586   2.922   1.363
  128THF     H6 2149   1.496   2.926   1.208
  128THF     H7 2150   1.276   3.100   1.463
  128THF     H8 2151   1.257   3.142   1.290
  129THF     C1 2152   0.177   2.434   0.779
  129THF     C2 2153   0.321   2.403   0.820
  129THF     C3 2154   0.398   2.531   0.779
  129THF     O1 2155   0.299   2.636   0.769
  129THF     C4 2156   0.171   2.586   0.808
  129THF     H1 2157   0.158   2.408   0.675
  129THF     H2 2158   0.107   2.377   0.842
  129THF     H3 2159   0.360   2.312   0.773
  129THF     H4 2160   0.324   2.384   0.928
  129THF     H5 2161   0.475   2.558   0.852
  129THF     H6 2162   0.445   2.519   0.681
  129THF     H7 2163   0.155   2.606   0.915
  129THF     H8 2164   0.092   2.637   0.751
  130THF     C1 2165   0.787   1.389   1.012
  130THF     C2 2166   0.831   1.523   1.073
  130THF     C3 2167   0.716   1.549   1.170
  130THF     O1 2168   0.671   1.419   1.213
  130THF     C4 2169   0.743   1.318   1.139
  130THF     H1 2170   0.702   1.398   0.944
  130THF     H2 2171   0.868   1.336   0.961
  130THF     H3 2172   0.836   1.605   1.000
  130THF     H4 2173   0.927   1.517   1.124
  130THF     H5 2174   0.746   1.609   1.257
  130THF     H6 2175   0.633   1.600   1.120
  130THF     H7 2176   0.833   1.286   1.194
  130THF     H8 2177   0.677   1.232   1.124
  131THF     C1 2178   2.588   1.561   0.803
  131THF     C2 2179   2.466   1.505   0.726
  131THF     C3 2180   2.350   1.554   0.812
  131THF     O1 2181   2.398   1.668   0.885
  131THF     C4 2182   2.535   1.695   0.853
  131THF     H1 2183   2.617   1.496   0.885
  131THF     H2 2184   2.675   1.576   0.738
  131THF     H3 2185   2.465   1.396   0.717
  131THF     H4 2186   2.462   1.544   0.624
  131THF     H5 2187   2.263   1.582   0.751
  131THF     H6 2188   2.319   1.479   0.885
  131THF     H7 2189   2.539   1.772   0.775
  131THF     H8 2190   2.587   1.732   0.942
  132THF     C1 2191   3.167   2.767   1.379
  132THF     C2 2192   3.268   2.651   1.373
  132THF     C3 2193   3.173   2.532   1.396
  132THF     O1 2194   3.058   2.565   1.317
  132THF     C4 2195   3.050   2.707   1.298
  132THF     H1 2196   3.137   2.790   1.482
  132THF     H2 2197   3.205   2.860   1.334
  132THF     H3 2198   3.346   2.658   1.450
  132THF     H4 2199   3.317   2.644   1.275
  132THF     H5 2200   3.213   2.436   1.363
  132THF     H6 2201   3.142   2.525   1.501
  132THF     H7 2202   3.064   2.726   1.191
  132THF     H8 2203   2.951   2.745   1.328
  133THF     C1 2204   1.779   0.276   1.209
  133THF     C2 2205   1.645   0.201   1.212
  133THF     C3 2206   1.541   0.315   1.221
  133THF     O1 2207   1.610   0.437   1.183
  133THF     C4 2208   1.741   0.405   1.134
  133THF     H1 2209   1.816   0.299   1.309
  133THF     H2 2210   1.856   0.220   1.155
  133THF     H3 2211   1.639   0.131   1.296
  133THF     H4 2212   1.630   0.143   1.120
  133THF     H5 2213   1.454   0.299   1.156
  133THF     H6 2214   1.505   0.326   1.324
  133THF     H7 2215   1.736   0.392   1.025
  133THF     H8 2216   1.810   0.487   1.155
  134THF     C1 2217   2.221   1.671   1.164
  134THF     C2 2218   2.321   1.753   1.246
  134THF     C3 2219   2.348   1.866   1.149
  134THF     O1 2220   2.220   1.899   1.094
  134THF     C4 2221   2.133   1.787   1.114
  134THF     H1 2222   2.270   1.618   1.082
  134THF     H2 2223   2.166   1.598   1.223
  134THF     H3 2224   2.412   1.697   1.271
  134THF     H4 2225   2.274   1.789   1.338
  134THF     H5 2226   2.390   1.957   1.195
  134THF     H6 2227   2.416   1.833   1.069
  134THF     H7 2228   2.060   1.816   1.192
  134THF     H8 2229   2.081   1.763   1.021
  135THF     C1 2230   3.224   0.760   1.435
  135THF     C2 2231   3.163   0.826   1.310
  135THF     C3 2232   3.220   0.736   1.199
  135THF     O1 2233   3.221   0.603   1.255
  135THF     C4 2234   3.212   0.610   1.399
  135THF     H1 2235   3.329   0.789   1.447
  135THF     H2 2236   3.172   0.786   1.527
  135THF     H3 2237   3.194   0.930   1.299
  135THF     H4 2238   3.053   0.824   1.311
  135THF     H5 2239   3.159   0.736   1.108
  135THF     H6 2240   3.322   0.764   1.172
  135THF     H7 2241   3.115   0.568   1.428
  135THF     H8 2242   3.291   0.549   1.445
  136THF     C1 2243   2.644   2.610   1.444
  136THF     C2 2244   2.755   2.528   1.380
  136THF     C3 2245   2.851   2.521   1.502
  136THF     O1 2246   2.766   2.501   1.615
  136THF     C4 2247   2.634   2.539   1.580
  136THF     H1 2248   2.671   2.715   1.454
  136THF     H2 2249   2.551   2.603   1.386
  136THF     H3 2250   2.798   2.577   1.292
  136THF     H4 2251   2.718   2.430   1.348
  136THF     H5 2252   2.925   2.441   1.498
  136THF     H6 2253   2.905   2.616   1.517
  136THF     H7 2254   2.576   2.446   1.573
  136THF     H8 2255   2.591   2.605   1.656
  137THF     C1 2256   1.279   1.356   0.194
  137THF     C2 2257   1.146   1.282   0.166
  137THF     C3 2258   1.060   1.335   0.282
  137THF     O1 2259   1.092   1.475   0.285
  137THF     C4 2260   1.230   1.493   0.247
  137THF     H1 2261   1.337   1.304   0.271
  137THF     H2 2262   1.342   1.365   0.106
  137THF     H3 2263   1.158   1.173   0.169
  137THF     H4 2264   1.104   1.310   0.069
  137THF     H5 2265   0.952   1.323   0.266
  137THF     H6 2266   1.086   1.289   0.379
  137THF     H7 2267   1.235   1.571   0.170
  137THF     H8 2268   1.290   1.525   0.333
  138THF     C1 2269   2.827   0.578   0.317
  138THF     C2 2270   2.805   0.638   0.176
  138THF     C3 2271   2.862   0.781   0.196
  138THF     O1 2272   2.958   0.770   0.303
  138THF     C4 2273   2.967   0.633   0.346
  138THF     H1 2274   2.754   0.616   0.390
  138THF     H2 2275   2.822   0.469   0.317
  138THF     H3 2276   2.701   0.639   0.144
  138THF     H4 2277   2.862   0.583   0.100
  138THF     H5 2278   2.910   0.821   0.106
  138THF     H6 2279   2.784   0.851   0.228
  138THF     H7 2280   3.044   0.582   0.287
  138THF     H8 2281   2.994   0.629   0.452
  139THF     C1 2282   1.116   2.244   1.161
  139THF     C2 2283   1.253   2.236   1.228
  139THF     C3 2284   1.317   2.362   1.166
  139THF     O1 2285   1.209   2.458   1.161
  139THF     C4 2286   1.084   2.391   1.187
  139THF     H1 2287   1.119   2.222   1.053
  139THF     H2 2288   1.043   2.175   1.206
  139THF     H3 2289   1.309   2.145   1.204
  139THF     H4 2290   1.245   2.243   1.337
  139THF     H5 2291   1.402   2.401   1.223
  139THF     H6 2292   1.350   2.340   1.064
  139THF     H7 2293   1.055   2.409   1.291
  139THF     H8 2294   1.005   2.430   1.121
  140THF     C1 2295   0.714   2.815   1.165
  140THF     C2 2296   0.667   2.678   1.212
  140THF     C3 2297   0.742   2.589   1.114
  140THF     O1 2298   0.871   2.651   1.105
  140THF     C4 2299   0.864   2.786   1.152
  140THF     H1 2300   0.669   2.842   1.069
  140THF     H2 2301   0.693   2.895   1.237
  140THF     H3 2302   0.558   2.670   1.206
  140THF     H4 2303   0.698   2.653   1.314
  140THF     H5 2304   0.753   2.485   1.149
  140THF     H6 2305   0.693   2.590   1.016
  140THF     H7 2306   0.917   2.792   1.248
  140THF     H8 2307   0.914   2.854   1.082
  141THF     C1 2308   2.899   3.016   1.460
  141THF     C2 2309   2.815   3.127   1.526
  141THF     C3 2310   2.696   3.043   1.576
  141THF     O1 2311   2.752   2.915   1.611
  141THF     C4 2312   2.890   2.912   1.571
  141THF     H1 2313   2.855   2.980   1.366
  141THF     H2 2314   3.003   3.046   1.441
  141THF     H3 2315   2.784   3.207   1.457
  141THF     H4 2316   2.868   3.175   1.609
  141THF     H5 2317   2.645   3.088   1.662
  141THF     H6 2318   2.620   3.026   1.498
  141THF     H7 2319   2.954   2.942   1.655
  141THF     H8 2320   2.918   2.811   1.540
  142THF     C1 2321   1.345   0.864   1.071
  142THF     C2 2322   1.333   0.890   1.223
  142THF     C3 2323   1.245   0.771   1.262
  142THF     O1 2324   1.287   0.664   1.176
  142THF     C4 2325   1.376   0.714   1.075
  142THF     H1 2326   1.253   0.888   1.017
  142THF     H2 2327   1.428   0.920   1.027
  142THF     H3 2328   1.289   0.986   1.249
  142THF     H4 2329   1.431   0.884   1.271
  142THF     H5 2330   1.257   0.743   1.368
  142THF     H6 2331   1.139   0.791   1.244
  142THF     H7 2332   1.479   0.694   1.105
  142THF     H8 2333   1.357   0.664   0.979
  143THF     C1 2334   0.254   1.096   1.412
  143THF     C2 2335   0.327   1.174   1.523
  143THF     C3 2336   0.368   1.297   1.440
  143THF     O1 2337   0.247   1.330   1.370
  143THF     C4 2338   0.171   1.210   1.347
  143THF     H1 2339   0.325   1.053   1.341
  143THF     H2 2340   0.192   1.014   1.451
  143THF     H3 2341   0.411   1.119   1.566
  143THF     H4 2342   0.260   1.202   1.606
  143THF     H5 2343   0.401   1.382   1.501
  143THF     H6 2344   0.447   1.274   1.367
  143THF     H7 2345   0.074   1.222   1.396
  143THF     H8 2346   0.155   1.195   1.240
  144THF     C1 2347   0.517   1.681   1.448
  144THF     C2 2348   0.533   1.738   1.588
  144THF     C3 2349   0.603   1.875   1.564
  144THF     O1 2350   0.583   1.905   1.424
  144THF     C4 2351   0.493   1.809   1.367
  144THF     H1 2352   0.608   1.628   1.416
  144THF     H2 2353   0.434   1.610   1.443
  144THF     H3 2354   0.593   1.670   1.650
  144THF     H4 2355   0.436   1.749   1.637
  144THF     H5 2356   0.560   1.955   1.626
  144THF     H6 2357   0.710   1.872   1.585
  144THF     H7 2358   0.390   1.845   1.376
  144THF     H8 2359   0.516   1.796   1.260
  145THF     C1 2360   1.313   2.058   0.250
  145THF     C2 2361   1.172   2.039   0.190
  145THF     C3 2362   1.135   2.187   0.169
  145THF     O1 2363   1.254   2.242   0.110
  145THF     C4 2364   1.369   2.176   0.167
  145THF     H1 2365   1.305   2.086   0.355
  145THF     H2 2366   1.376   1.969   0.241
  145THF     H3 2367   1.105   1.986   0.259
  145THF     H4 2368   1.175   1.983   0.096
  145THF     H5 2369   1.048   2.201   0.104
  145THF     H6 2370   1.115   2.238   0.264
  145THF     H7 2371   1.435   2.142   0.087
  145THF     H8 2372   1.425   2.246   0.230
  146THF     C1 2373   1.870   1.591   1.159
  146THF     C2 2374   1.722   1.606   1.201
  146THF     C3 2375   1.653   1.542   1.079
  146THF     O1 2376   1.748   1.451   1.025
  146THF     C4 2377   1.867   1.449   1.105
  146THF     H1 2378   1.899   1.659   1.077
  146THF     H2 2379   1.943   1.607   1.239
  146THF     H3 2380   1.692   1.709   1.220
  146THF     H4 2381   1.698   1.547   1.290
  146THF     H5 2382   1.562   1.485   1.104
  146THF     H6 2383   1.628   1.617   1.002
  146THF     H7 2384   1.857   1.372   1.183
  146THF     H8 2385   1.953   1.425   1.041
  147THF     C1 2386   1.789   2.690   1.253
  147THF     C2 2387   1.928   2.755   1.231
  147THF     C3 2388   1.992   2.655   1.136
  147THF     O1 2389   1.884   2.607   1.057
  147THF     C4 2390   1.758   2.652   1.109
  147THF     H1 2391   1.793   2.603   1.319
  147THF     H2 2392   1.712   2.758   1.290
  147THF     H3 2393   1.988   2.766   1.322
  147THF     H4 2394   1.922   2.854   1.183
  147THF     H5 2395   2.069   2.699   1.071
  147THF     H6 2396   2.036   2.570   1.190
  147THF     H7 2397   1.724   2.738   1.050
  147THF     H8 2398   1.683   2.572   1.103
  148THF     C1 2399   1.212   1.635   1.237
  148THF     C2 2400   1.359   1.636   1.283
  148THF     C3 2401   1.343   1.571   1.420
  148THF     O1 2402   1.263   1.459   1.386
  148THF     C4 2403   1.165   1.498   1.288
  148THF     H1 2404   1.157   1.718   1.282
  148THF     H2 2405   1.199   1.637   1.129
  148THF     H3 2406   1.404   1.736   1.285
  148THF     H4 2407   1.421   1.573   1.218
  148THF     H5 2408   1.438   1.537   1.465
  148THF     H6 2409   1.289   1.633   1.492
  148THF     H7 2410   1.167   1.424   1.207
  148THF     H8 2411   1.063   1.497   1.328
  149THF     C1 2412   0.882   2.908   0.457
  149THF     C2 2413   0.884   2.812   0.577
  149THF     C3 2414   0.733   2.795   0.604
  149THF     O1 2415   0.671   2.797   0.474
  149THF     C4 2416   0.763   2.852   0.376
  149THF     H1 2417   0.866   3.011   0.487
  149THF     H2 2418   0.975   2.904   0.399
  149THF     H3 2419   0.935   2.858   0.663
  149THF     H4 2420   0.932   2.716   0.554
  149THF     H5 2421   0.708   2.703   0.657
  149THF     H6 2422   0.694   2.879   0.664
  149THF     H7 2423   0.794   2.772   0.309
  149THF     H8 2424   0.713   2.930   0.318
  150THF     C1 2425   2.031   2.682   2.714
  150THF     C2 2426   1.925   2.777   2.769
  150THF     C3 2427   1.843   2.798   2.644
  150THF     O1 2428   1.833   2.668   2.584
  150THF     C4 2429   1.947   2.590   2.622
  150THF     H1 2430   2.106   2.736   2.657
  150THF     H2 2431   2.082   2.626   2.793
  150THF     H3 2432   1.970   2.871   2.804
  150THF     H4 2433   1.864   2.734   2.849
  150THF     H5 2434   1.742   2.835   2.664
  150THF     H6 2435   1.896   2.865   2.575
  150THF     H7 2436   1.909   2.502   2.675
  150THF     H8 2437   2.002   2.557   2.533
  151THF     C1 2438   0.296   1.515   3.256
  151THF     C2 2439   0.163   1.590   3.233
  151THF     C3 2440   0.215   1.735   3.240
  151THF     O1 2441   0.330   1.728   3.155
  151THF     C4 2442   0.397   1.603   3.177
  151THF     H1 2443   0.321   1.512   3.362
  151THF     H2 2444   0.292   1.412   3.219
  151THF     H3 2445   0.088   1.567   3.308
  151THF     H4 2446   0.122   1.569   3.133
  151THF     H5 2447   0.143   1.808   3.200
  151THF     H6 2448   0.244   1.763   3.341
  151THF     H7 2449   0.421   1.560   3.078
  151THF     H8 2450   0.491   1.618   3.232
  152THF     C1 2451   2.255   2.158   3.098
  152THF     C2 2452   2.372   2.254   3.109
  152THF     C3 2453   2.295   2.384   3.120
  152THF     O1 2454   2.203   2.351   3.222
  152THF     C4 2455   2.160   2.216   3.204
  152THF     H1 2456   2.212   2.162   2.997
  152THF     H2 2457   2.286   2.056   3.122
  152THF     H3 2458   2.442   2.252   3.025
  152THF     H4 2459   2.426   2.234   3.203
  152THF     H5 2460   2.357   2.469   3.153
  152THF     H6 2461   2.242   2.409   3.027
  152THF     H7 2462   2.172   2.166   3.301
  152THF     H8 2463   2.055   2.211   3.174
  153THF     C1 2464   1.632   2.834   3.217
  153THF     C2 2465   1.673   2.710   3.298
  153THF     C3 2466   1.778   2.772   3.393
  153THF     O1 2467   1.735   2.906   3.418
  153THF     C4 2468   1.629   2.939   3.329
  153THF     H1 2469   1.705   2.860   3.140
  153THF     H2 2470   1.534   2.820   3.169
  153THF     H3 2471   1.715   2.632   3.234
  153THF     H4 2472   1.589   2.667   3.353
  153THF     H5 2473   1.788   2.717   3.488
  153THF     H6 2474   1.876   2.781   3.346
  153THF     H7 2475   1.534   2.933   3.386
  153THF     H8 2476   1.643   3.042   3.293
  154THF     C1 2477   2.564   0.182   2.622
  154THF     C2 2478   2.659   0.280   2.555
  154THF     C3 2479   2.699   0.371   2.672
  154THF     O1 2480   2.693   0.289   2.790
  154THF     C4 2481   2.638   0.160   2.756
  154THF     H1 2482   2.464   0.224   2.634
  154THF     H2 2483   2.551   0.091   2.561
  154THF     H3 2484   2.602   0.337   2.481
  154THF     H4 2485   2.744   0.232   2.507
  154THF     H5 2486   2.800   0.413   2.660
  154THF     H6 2487   2.627   0.453   2.684
  154THF     H7 2488   2.721   0.089   2.744
  154THF     H8 2489   2.572   0.127   2.837
  155THF     C1 2490   0.902   1.320   2.947
  155THF     C2 2491   0.778   1.379   2.875
  155THF     C3 2492   0.741   1.501   2.963
  155THF     O1 2493   0.853   1.524   3.050
  155THF     C4 2494   0.966   1.448   3.002
  155THF     H1 2495   0.875   1.250   3.027
  155THF     H2 2496   0.969   1.267   2.878
  155THF     H3 2497   0.695   1.308   2.870
  155THF     H4 2498   0.804   1.410   2.773
  155THF     H5 2499   0.722   1.591   2.902
  155THF     H6 2500   0.652   1.483   3.023
  155THF     H7 2501   1.017   1.505   2.924
  155THF     H8 2502   1.035   1.429   3.085
  156THF     C1 2503   2.401   0.511   2.873
  156THF     C2 2504   2.336   0.396   2.796
  156THF     C3 2505   2.189   0.395   2.846
  156THF     O1 2506   2.166   0.522   2.909
  156THF     C4 2507   2.282   0.605   2.895
  156THF     H1 2508   2.445   0.478   2.968
  156THF     H2 2509   2.483   0.559   2.817
  156THF     H3 2510   2.385   0.301   2.819
  156THF     H4 2511   2.340   0.411   2.687
  156THF     H5 2512   2.117   0.380   2.765
  156THF     H6 2513   2.173   0.317   2.922
  156THF     H7 2514   2.266   0.671   2.808
  156THF     H8 2515   2.295   0.667   2.984
  157THF     C1 2516   0.988   2.849   3.202
  157THF     C2 2517   1.082   2.917   3.102
  157THF     C3 2518   1.216   2.853   3.145
  157THF     O1 2519   1.183   2.715   3.164
  157THF     C4 2520   1.043   2.705   3.197
  157THF     H1 2521   0.998   2.891   3.302
  157THF     H2 2522   0.883   2.854   3.171
  157THF     H3 2523   1.081   3.027   3.111
  157THF     H4 2524   1.055   2.892   2.999
  157THF     H5 2525   1.295   2.862   3.070
  157THF     H6 2526   1.250   2.892   3.241
  157THF     H7 2527   0.997   2.647   3.116
  157THF     H8 2528   1.029   2.654   3.293
  158THF     C1 2529   1.293   2.809   3.529
  158THF     C2 2530   1.368   2.721   3.631
  158THF     C3 2531   1.500   2.800   3.642
  158THF     O1 2532   1.461   2.939   3.635
  158THF     C4 2533   1.327   2.949   3.585
  158THF     H1 2534   1.331   2.796   3.428
  158THF     H2 2535   1.185   2.790   3.527
  158THF     H3 2536   1.386   2.619   3.595
  158THF     H4 2537   1.317   2.715   3.727
  158THF     H5 2538   1.556   2.780   3.734
  158THF     H6 2539   1.565   2.778   3.556
  158THF     H7 2540   1.260   2.976   3.668
  158THF     H8 2541   1.321   3.028   3.508
  159THF     C1 2542   2.948   2.454   2.819
  159THF     C2 2543   2.807   2.410   2.772
  159THF     C3 2544   2.840   2.268   2.729
  159THF     O1 2545   2.918   2.220   2.839
  159THF     C4 2546   3.003   2.326   2.885
  159THF     H1 2547   3.011   2.482   2.734
  159THF     H2 2548   2.946   2.539   2.888
  159THF     H3 2549   2.768   2.469   2.688
  159THF     H4 2550   2.733   2.413   2.852
  159THF     H5 2551   2.749   2.207   2.716
  159THF     H6 2552   2.900   2.264   2.637
  159THF     H7 2553   2.998   2.329   2.995
  159THF     H8 2554   3.107   2.307   2.857
  160THF     C1 2555   0.258   1.348   2.923
  160THF     C2 2556   0.185   1.354   2.787
  160THF     C3 2557   0.167   1.204   2.762
  160THF     O1 2558   0.126   1.153   2.890
  160THF     C4 2559   0.177   1.238   2.995
  160THF     H1 2560   0.364   1.319   2.912
  160THF     H2 2561   0.255   1.443   2.977
  160THF     H3 2562   0.242   1.403   2.707
  160THF     H4 2563   0.090   1.408   2.796
  160THF     H5 2564   0.092   1.182   2.685
  160THF     H6 2565   0.262   1.156   2.734
  160THF     H7 2566   0.092   1.280   3.050
  160THF     H8 2567   0.238   1.179   3.065
  161THF     C1 2568   2.490   3.294   2.694
  161THF     C2 2569   2.446   3.151   2.728
  161THF     C3 2570   2.433   3.092   2.586
  161THF     O1 2571   2.539   3.152   2.512
  161THF     C4 2572   2.596   3.259   2.588
  161THF     H1 2573   2.408   3.353   2.652
  161THF     H2 2574   2.532   3.346   2.780
  161THF     H3 2575   2.352   3.150   2.784
  161THF     H4 2576   2.523   3.100   2.786
  161THF     H5 2577   2.442   2.983   2.582
  161THF     H6 2578   2.338   3.122   2.539
  161THF     H7 2579   2.689   3.224   2.634
  161THF     H8 2580   2.620   3.342   2.520
  162THF     C1 2581   0.385   0.409   3.256
  162THF     C2 2582   0.351   0.501   3.137
  162THF     C3 2583   0.201   0.467   3.120
  162THF     O1 2584   0.151   0.450   3.254
  162THF     C4 2585   0.262   0.434   3.345
  162THF     H1 2586   0.394   0.304   3.226
  162THF     H2 2587   0.479   0.438   3.306
  162THF     H3 2588   0.411   0.479   3.049
  162THF     H4 2589   0.364   0.607   3.162
  162THF     H5 2590   0.145   0.546   3.068
  162THF     H6 2591   0.188   0.372   3.065
  162THF     H7 2592   0.273   0.527   3.403
  162THF     H8 2593   0.242   0.351   3.414
  163THF     C1 2594   0.683   0.274   3.458
  163THF     C2 2595   0.754   0.368   3.359
  163THF     C3 2596   0.894   0.375   3.423
  163THF     O1 2597   0.917   0.243   3.476
  163THF     C4 2598   0.794   0.169   3.475
  163THF     H1 2599   0.660   0.324   3.553
  163THF     H2 2600   0.590   0.232   3.418
  163THF     H3 2601   0.707   0.467   3.352
  163THF     H4 2602   0.758   0.325   3.258
  163THF     H5 2603   0.972   0.402   3.350
  163THF     H6 2604   0.897   0.447   3.506
  163THF     H7 2605   0.796   0.101   3.389
  163THF     H8 2606   0.785   0.110   3.568
  164THF     C1 2607   2.183   2.991   3.124
  164THF     C2 2608   2.112   3.051   3.001
  164THF     C3 2609   1.963   3.034   3.037
  164THF     O1 2610   1.958   3.020   3.179
  164THF     C4 2611   2.088   3.040   3.234
  164THF     H1 2612   2.187   2.881   3.121
  164THF     H2 2613   2.286   3.026   3.138
  164THF     H3 2614   2.136   3.000   2.907
  164THF     H4 2615   2.138   3.157   2.988
  164THF     H5 2616   1.902   3.120   3.005
  164THF     H6 2617   1.920   2.942   2.995
  164THF     H7 2618   2.102   3.147   3.254
  164THF     H8 2619   2.096   2.984   3.328
  165THF     C1 2620   2.190   2.914   3.611
  165THF     C2 2621   2.249   2.809   3.515
  165THF     C3 2622   2.163   2.688   3.557
  165THF     O1 2623   2.031   2.742   3.564
  165THF     C4 2624   2.038   2.880   3.603
  165THF     H1 2625   2.228   2.899   3.713
  165THF     H2 2626   2.213   3.016   3.581
  165THF     H3 2627   2.356   2.795   3.529
  165THF     H4 2628   2.233   2.835   3.409
  165THF     H5 2629   2.166   2.606   3.485
  165THF     H6 2630   2.190   2.651   3.657
  165THF     H7 2631   1.988   2.939   3.526
  165THF     H8 2632   1.987   2.895   3.699
  166THF     C1 2633   3.111   1.496   3.253
  166THF     C2 2634   3.224   1.467   3.153
  166THF     C3 2635   3.250   1.318   3.186
  166THF     O1 2636   3.121   1.265   3.223
  166THF     C4 2637   3.024   1.371   3.233
  166THF     H1 2638   3.151   1.501   3.355
  166THF     H2 2639   3.057   1.590   3.233
  166THF     H3 2640   3.311   1.531   3.169
  166THF     H4 2641   3.194   1.479   3.049
  166THF     H5 2642   3.290   1.262   3.101
  166THF     H6 2643   3.319   1.306   3.271
  166THF     H7 2644   2.966   1.376   3.140
  166THF     H8 2645   2.956   1.352   3.317
  167THF     C1 2646   0.627   0.562   2.597
  167THF     C2 2647   0.735   0.506   2.690
  167THF     C3 2648   0.857   0.580   2.630
  167THF     O1 2649   0.808   0.714   2.609
  167THF     C4 2650   0.665   0.711   2.603
  167THF     H1 2651   0.631   0.522   2.496
  167THF     H2 2652   0.527   0.542   2.637
  167THF     H3 2653   0.741   0.397   2.684
  167THF     H4 2654   0.719   0.534   2.794
  167THF     H5 2655   0.945   0.582   2.695
  167THF     H6 2656   0.885   0.538   2.532
  167THF     H7 2657   0.627   0.757   2.696
  167THF     H8 2658   0.628   0.769   2.518
  168THF     C1 2659   0.523   0.909   2.888
  168THF     C2 2660   0.392   0.956   2.953
  168THF     C3 2661   0.436   0.961   3.100
  168THF     O1 2662   0.569   1.016   3.094
  168THF     C4 2663   0.626   0.995   2.964
  168THF     H1 2664   0.541   0.802   2.902
  168THF     H2 2665   0.523   0.928   2.780
  168THF     H3 2666   0.307   0.888   2.935
  168THF     H4 2667   0.365   1.055   2.915
  168THF     H5 2668   0.371   1.024   3.162
  168THF     H6 2669   0.440   0.861   3.145
  168THF     H7 2670   0.640   1.094   2.918
  168THF     H8 2671   0.724   0.948   2.972
  169THF     C1 2672   1.072   0.167   2.588
  169THF     C2 2673   0.953   0.236   2.654
  169THF     C3 2674   0.961   0.176   2.797
  169THF     O1 2675   1.102   0.157   2.822
  169THF     C4 2676   1.176   0.181   2.700
  169THF     H1 2677   1.048   0.061   2.568
  169THF     H2 2678   1.102   0.214   2.494
  169THF     H3 2679   0.858   0.214   2.604
  169THF     H4 2680   0.968   0.344   2.655
  169THF     H5 2681   0.918   0.242   2.873
  169THF     H6 2682   0.911   0.078   2.802
  169THF     H7 2683   1.216   0.283   2.704
  169THF     H8 2684   1.260   0.110   2.692
  170THF     C1 2685   0.761   0.754   3.203
  170THF     C2 2686   0.858   0.715   3.090
  170THF     C3 2687   0.833   0.563   3.084
  170THF     O1 2688   0.692   0.547   3.107
  170THF     C4 2689   0.639   0.668   3.165
  170THF     H1 2690   0.801   0.726   3.301
  170THF     H2 2691   0.739   0.861   3.205
  170THF     H3 2692   0.961   0.741   3.117
  170THF     H4 2693   0.834   0.763   2.994
  170THF     H5 2694   0.858   0.518   2.987
  170THF     H6 2695   0.888   0.510   3.163
  170THF     H7 2696   0.578   0.716   3.088
  170THF     H8 2697   0.575   0.644   3.251
  171THF     C1 2698   2.614   0.145   3.622
  171THF     C2 2699   2.500   0.158   3.518
  171THF     C3 2700   2.440   0.298   3.553
  171THF     O1 2701   2.543   0.368   3.625
  171THF     C4 2702   2.664   0.291   3.625
  171THF     H1 2703   2.576   0.115   3.720
  171THF     H2 2704   2.691   0.075   3.591
  171THF     H3 2705   2.426   0.078   3.525
  171THF     H4 2706   2.539   0.156   3.415
  171THF     H5 2707   2.412   0.355   3.464
  171THF     H6 2708   2.353   0.289   3.619
  171THF     H7 2709   2.724   0.315   3.536
  171THF     H8 2710   2.724   0.314   3.714
  172THF     C1 2711   0.166   2.710   2.974
  172THF     C2 2712   0.150   2.795   2.845
  172THF     C3 2713   0.297   2.799   2.799
  172THF     O1 2714   0.343   2.664   2.819
  172THF     C4 2715   0.268   2.604   2.926
  172THF     H1 2716   0.205   2.770   3.056
  172THF     H2 2717   0.072   2.665   3.007
  172THF     H3 2718   0.110   2.895   2.865
  172THF     H4 2719   0.087   2.745   2.771
  172THF     H5 2720   0.309   2.828   2.694
  172THF     H6 2721   0.358   2.865   2.862
  172THF     H7 2722   0.219   2.515   2.886
  172THF     H8 2723   0.337   2.573   3.006
  173THF     C1 2724   0.195   1.686   2.403
  173THF     C2 2725   0.323   1.771   2.392
  173THF     C3 2726   0.385   1.712   2.265
  173THF     O1 2727   0.273   1.683   2.180
  173THF     C4 2728   0.151   1.685   2.255
  173THF     H1 2729   0.215   1.585   2.440
  173THF     H2 2730   0.119   1.731   2.469
  173THF     H3 2731   0.389   1.763   2.479
  173THF     H4 2732   0.301   1.877   2.376
  173THF     H5 2733   0.454   1.781   2.214
  173THF     H6 2734   0.437   1.617   2.286
  173THF     H7 2735   0.097   1.777   2.228
  173THF     H8 2736   0.090   1.598   2.228
  174THF     C1 2737   0.915   0.811   2.311
  174THF     C2 2738   0.854   0.683   2.251
  174THF     C3 2739   0.707   0.727   2.231
  174THF     O1 2740   0.712   0.868   2.202
  174THF     C4 2741   0.844   0.918   2.225
  174THF     H1 2742   0.891   0.824   2.417
  174THF     H2 2743   1.024   0.816   2.301
  174THF     H3 2744   0.864   0.596   2.317
  174THF     H4 2745   0.902   0.657   2.156
  174THF     H5 2746   0.657   0.673   2.150
  174THF     H6 2747   0.648   0.713   2.322
  174THF     H7 2748   0.898   0.928   2.131
  174THF     H8 2749   0.837   1.017   2.271
  175THF     C1 2750   2.335   0.779   2.453
  175THF     C2 2751   2.270   0.661   2.528
  175THF     C3 2752   2.135   0.722   2.573
  175THF     O1 2753   2.101   0.823   2.476
  175THF     C4 2754   2.214   0.848   2.390
  175THF     H1 2755   2.389   0.848   2.519
  175THF     H2 2756   2.408   0.746   2.378
  175THF     H3 2757   2.333   0.626   2.611
  175THF     H4 2758   2.256   0.574   2.464
  175THF     H5 2759   2.054   0.647   2.579
  175THF     H6 2760   2.140   0.769   2.672
  175THF     H7 2761   2.192   0.809   2.290
  175THF     H8 2762   2.231   0.957   2.381
  176THF     C1 2763   2.593   2.538   2.251
  176THF     C2 2764   2.740   2.549   2.294
  176THF     C3 2765   2.783   2.685   2.233
  176THF     O1 2766   2.661   2.760   2.214
  176THF     C4 2767   2.549   2.684   2.262
  176THF     H1 2768   2.583   2.500   2.149
  176THF     H2 2769   2.534   2.472   2.316
  176THF     H3 2770   2.800   2.466   2.253
  176THF     H4 2771   2.751   2.550   2.403
  176THF     H5 2772   2.853   2.740   2.297
  176THF     H6 2773   2.832   2.672   2.136
  176THF     H7 2774   2.528   2.713   2.365
  176THF     H8 2775   2.461   2.707   2.199
  177THF     C1 2776   1.437   1.877   3.589
  177THF     C2 2777   1.467   2.025   3.612
  177THF     C3 2778   1.621   2.021   3.622
  177THF     O1 2779   1.662   1.911   3.537
  177THF     C4 2780   1.545   1.848   3.483
  177THF     H1 2781   1.453   1.818   3.680
  177THF     H2 2782   1.335   1.859   3.554
  177THF     H3 2783   1.417   2.065   3.701
  177THF     H4 2784   1.433   2.086   3.527
  177THF     H5 2785   1.667   2.115   3.587
  177THF     H6 2786   1.656   2.000   3.724
  177THF     H7 2787   1.521   1.895   3.387
  177THF     H8 2788   1.563   1.741   3.467
  178THF     C1 2789   2.276   2.917   2.344
  178THF     C2 2790   2.188   2.807   2.284
  178THF     C3 2791   2.069   2.889   2.233
  178THF     O1 2792   2.124   3.018   2.197
  178THF     C4 2793   2.263   3.022   2.233
  178THF     H1 2794   2.235   2.953   2.439
  178THF     H2 2795   2.380   2.887   2.360
  178THF     H3 2796   2.156   2.733   2.359
  178THF     H4 2797   2.238   2.754   2.202
  178THF     H5 2798   2.016   2.843   2.148
  178THF     H6 2799   1.995   2.905   2.313
  178THF     H7 2800   2.324   2.993   2.146
  178THF     H8 2801   2.291   3.124   2.263
  179THF     C1 2802   0.506   1.723   2.794
  179THF     C2 2803   0.412   1.615   2.740
  179THF     C3 2804   0.277   1.677   2.779
  179THF     O1 2805   0.292   1.817   2.747
  179THF     C4 2806   0.431   1.853   2.756
  179THF     H1 2807   0.518   1.715   2.902
  179THF     H2 2808   0.605   1.717   2.747
  179THF     H3 2809   0.432   1.518   2.787
  179THF     H4 2810   0.422   1.602   2.631
  179THF     H5 2811   0.192   1.636   2.723
  179THF     H6 2812   0.257   1.667   2.887
  179THF     H7 2813   0.462   1.891   2.658
  179THF     H8 2814   0.445   1.932   2.831
  180THF     C1 2815   1.162   3.261   2.438
  180THF     C2 2816   1.275   3.272   2.543
  180THF     C3 2817   1.379   3.177   2.481
  180THF     O1 2818   1.362   3.189   2.338
  180THF     C4 2819   1.244   3.265   2.308
  180THF     H1 2820   1.106   3.167   2.447
  180THF     H2 2821   1.088   3.342   2.442
  180THF     H3 2822   1.245   3.241   2.644
  180THF     H4 2823   1.316   3.374   2.551
  180THF     H5 2824   1.483   3.203   2.508
  180THF     H6 2825   1.363   3.073   2.508
  180THF     H7 2826   1.274   3.367   2.283
  180THF     H8 2827   1.191   3.220   2.223
  181THF     C1 2828   0.969   3.252   3.322
  181THF     C2 2829   0.818   3.267   3.299
  181THF     C3 2830   0.776   3.121   3.316
  181THF     O1 2831   0.854   3.072   3.426
  181THF     C4 2832   0.969   3.157   3.444
  181THF     H1 2833   1.016   3.205   3.234
  181THF     H2 2834   1.021   3.346   3.341
  181THF     H3 2835   0.794   3.308   3.200
  181THF     H4 2836   0.770   3.330   3.375
  181THF     H5 2837   0.669   3.110   3.339
  181THF     H6 2838   0.799   3.061   3.227
  181THF     H7 2839   0.956   3.212   3.538
  181THF     H8 2840   1.060   3.095   3.452
  182THF     C1 2841   1.048   2.387   2.715
  182THF     C2 2842   0.978   2.420   2.848
  182THF     C3 2843   0.891   2.543   2.813
  182THF     O1 2844   0.874   2.539   2.670
  182THF     C4 2845   0.935   2.420   2.618
  182THF     H1 2846   1.136   2.450   2.698
  182THF     H2 2847   1.079   2.283   2.707
  182THF     H3 2848   1.048   2.440   2.930
  182THF     H4 2849   0.914   2.336   2.878
  182THF     H5 2850   0.793   2.542   2.861
  182THF     H6 2851   0.942   2.636   2.839
  182THF     H7 2852   0.860   2.340   2.610
  182THF     H8 2853   0.977   2.443   2.520
  183THF     C1 2854   2.342   1.267   2.597
  183THF     C2 2855   2.409   1.339   2.479
  183THF     C3 2856   2.310   1.305   2.369
  183THF     O1 2857   2.189   1.338   2.436
  183THF     C4 2858   2.194   1.291   2.571
  183THF     H1 2859   2.367   1.161   2.594
  183THF     H2 2860   2.371   1.309   2.694
  183THF     H3 2861   2.509   1.298   2.461
  183THF     H4 2862   2.415   1.447   2.494
  183THF     H5 2863   2.321   1.365   2.278
  183THF     H6 2864   2.313   1.198   2.344
  183THF     H7 2865   2.153   1.368   2.636
  183THF     H8 2866   2.136   1.198   2.582
  184THF     C1 2867   2.816   2.159   3.529
  184THF     C2 2868   2.683   2.099   3.480
  184THF     C3 2869   2.727   1.957   3.443
  184THF     O1 2870   2.809   1.921   3.554
  184THF     C4 2871   2.878   2.039   3.603
  184THF     H1 2872   2.877   2.194   3.445
  184THF     H2 2873   2.802   2.245   3.595
  184THF     H3 2874   2.638   2.153   3.396
  184THF     H4 2875   2.611   2.096   3.563
  184THF     H5 2876   2.644   1.885   3.434
  184THF     H6 2877   2.784   1.953   3.350
  184THF     H7 2878   2.862   2.045   3.711
  184THF     H8 2879   2.986   2.030   3.584
  185THF     C1 2880   2.354   2.314   2.626
  185THF     C2 2881   2.270   2.391   2.523
  185THF     C3 2882   2.295   2.534   2.575
  185THF     O1 2883   2.436   2.537   2.598
  185THF     C4 2884   2.480   2.405   2.631
  185THF     H1 2885   2.304   2.308   2.723
  185THF     H2 2886   2.377   2.212   2.593
  185THF     H3 2887   2.165   2.362   2.524
  185THF     H4 2888   2.310   2.377   2.421
  185THF     H5 2889   2.266   2.613   2.505
  185THF     H6 2890   2.245   2.549   2.671
  185THF     H7 2891   2.554   2.376   2.555
  185THF     H8 2892   2.528   2.403   2.730
  186THF     C1 2893   1.937   0.352   2.272
  186THF     C2 2894   1.936   0.496   2.222
  186THF     C3 2895   2.066   0.549   2.277
  186THF     O1 2896   2.157   0.438   2.273
  186THF     C4 2897   2.086   0.314   2.263
  186THF     H1 2898   1.905   0.352   2.377
  186THF     H2 2899   1.871   0.285   2.216
  186THF     H3 2900   1.848   0.554   2.249
  186THF     H4 2901   1.947   0.497   2.113
  186THF     H5 2902   2.106   0.632   2.217
  186THF     H6 2903   2.051   0.582   2.381
  186THF     H7 2904   2.111   0.267   2.167
  186THF     H8 2905   2.117   0.247   2.344
  187THF     C1 2906   1.101   2.044   3.590
  187THF     C2 2907   0.972   2.000   3.519
  187THF     C3 2908   0.867   2.042   3.625
  187THF     O1 2909   0.922   2.159   3.688
  187THF     C4 2910   1.053   2.184   3.633
  187THF     H1 2911   1.127   1.983   3.676
  187THF     H2 2912   1.187   2.045   3.523
  187THF     H3 2913   0.970   1.892   3.498
  187THF     H4 2914   0.957   2.051   3.424
  187THF     H5 2915   0.769   2.067   3.580
  187THF     H6 2916   0.853   1.965   3.701
  187THF     H7 2917   1.041   2.250   3.546
  187THF     H8 2918   1.119   2.233   3.705
  188THF     C1 2919   1.947   2.358   2.311
  188THF     C2 2920   1.977   2.494   2.244
  188THF     C3 2921   2.130   2.487   2.227
  188THF     O1 2922   2.161   2.348   2.204
  188THF     C4 2923   2.048   2.265   2.240
  188THF     H1 2924   1.964   2.361   2.420
  188THF     H2 2925   1.844   2.325   2.295
  188THF     H3 2926   1.946   2.580   2.304
  188THF     H4 2927   1.927   2.501   2.147
  188THF     H5 2928   2.167   2.548   2.143
  188THF     H6 2929   2.181   2.520   2.317
  188THF     H7 2930   2.005   2.224   2.148
  188THF     H8 2931   2.082   2.182   2.303
  189THF     C1 2932   3.024   1.232   2.465
  189THF     C2 2933   3.070   1.364   2.401
  189THF     C3 2934   3.223   1.345   2.407
  189THF     O1 2935   3.245   1.203   2.388
  189THF     C4 2936   3.119   1.133   2.395
  189THF     H1 2937   3.040   1.233   2.574
  189THF     H2 2938   2.917   1.211   2.450
  189THF     H3 2939   3.035   1.452   2.457
  189THF     H4 2940   3.035   1.374   2.298
  189THF     H5 2941   3.275   1.401   2.329
  189THF     H6 2942   3.263   1.373   2.504
  189THF     H7 2943   3.085   1.111   2.293
  189THF     H8 2944   3.131   1.039   2.450
  190THF     C1 2945   0.739   2.559   3.548
  190THF     C2 2946   0.850   2.478   3.617
  190THF     C3 2947   0.961   2.586   3.624
  190THF     O1 2948   0.891   2.711   3.646
  190THF     C4 2949   0.750   2.692   3.625
  190THF     H1 2950   0.761   2.572   3.441
  190THF     H2 2951   0.641   2.511   3.557
  190THF     H3 2952   0.880   2.391   3.558
  190THF     H4 2953   0.821   2.443   3.716
  190THF     H5 2954   1.034   2.569   3.704
  190THF     H6 2955   1.013   2.595   3.528
  190THF     H7 2956   0.700   2.686   3.723
  190THF     H8 2957   0.709   2.778   3.570
  191THF     C1 2958   2.757   2.896   2.674
  191THF     C2 2959   2.856   2.893   2.556
  191THF     C3 2960   2.955   2.785   2.604
  191THF     O1 2961   2.880   2.696   2.685
  191THF     C4 2962   2.747   2.745   2.701
  191THF     H1 2963   2.796   2.951   2.760
  191THF     H2 2964   2.660   2.939   2.646
  191THF     H3 2965   2.904   2.990   2.538
  191THF     H4 2966   2.806   2.863   2.464
  191THF     H5 2967   2.999   2.726   2.521
  191THF     H6 2968   3.037   2.825   2.665
  191THF     H7 2969   2.681   2.694   2.630
  191THF     H8 2970   2.718   2.721   2.804
  192THF     C1 2971   0.696   0.820   3.614
  192THF     C2 2972   0.718   0.669   3.593
  192THF     C3 2973   0.571   0.627   3.569
  192THF     O1 2974   0.519   0.730   3.482
  192THF     C4 2975   0.590   0.853   3.506
  192THF     H1 2976   0.657   0.840   3.714
  192THF     H2 2977   0.788   0.879   3.604
  192THF     H3 2978   0.763   0.620   3.679
  192THF     H4 2979   0.781   0.648   3.505
  192THF     H5 2980   0.560   0.529   3.521
  192THF     H6 2981   0.513   0.628   3.663
  192THF     H7 2982   0.637   0.885   3.411
  192THF     H8 2983   0.521   0.932   3.537
  193THF     C1 2984   1.267   0.480   2.878
  193THF     C2 2985   1.313   0.581   2.987
  193THF     C3 2986   1.196   0.679   2.987
  193THF     O1 2987   1.084   0.608   2.934
  193THF     C4 2988   1.119   0.471   2.914
  193THF     H1 2989   1.277   0.522   2.777
  193THF     H2 2990   1.319   0.384   2.881
  193THF     H3 2991   1.409   0.629   2.965
  193THF     H4 2992   1.325   0.537   3.087
  193THF     H5 2993   1.175   0.717   3.088
  193THF     H6 2994   1.215   0.763   2.920
  193THF     H7 2995   1.101   0.414   3.006
  193THF     H8 2996   1.058   0.429   2.833
  194THF     C1 2997   0.603   2.280   2.857
  194THF     C2 2998   0.512   2.399   2.822
  194THF     C3 2999   0.553   2.428   2.677
  194THF     O1 3000   0.591   2.300   2.622
  194THF     C4 3001   0.598   2.201   2.725
  194THF     H1 3002   0.705   2.314   2.880
  194THF     H2 3003   0.569   2.222   2.943
  194THF     H3 3004   0.529   2.485   2.888
  194THF     H4 3005   0.406   2.373   2.826
  194THF     H5 3006   0.471   2.471   2.618
  194THF     H6 3007   0.639   2.496   2.672
  194THF     H7 3008   0.509   2.138   2.719
  194THF     H8 3009   0.687   2.139   2.709
  195THF     C1 3010   0.314   2.273   3.091
  195THF     C2 3011   0.290   2.165   2.982
  195THF     C3 3012   0.166   2.094   3.038
  195THF     O1 3013   0.092   2.197   3.105
  195THF     C4 3014   0.169   2.318   3.114
  195THF     H1 3015   0.356   2.233   3.183
  195THF     H2 3016   0.379   2.355   3.058
  195THF     H3 3017   0.374   2.097   2.968
  195THF     H4 3018   0.266   2.210   2.885
  195THF     H5 3019   0.104   2.048   2.960
  195THF     H6 3020   0.192   2.017   3.112
  195THF     H7 3021   0.134   2.387   3.036
  195THF     H8 3022   0.154   2.364   3.213
  196THF     C1 3023   0.499   2.760   2.474
  196THF     C2 3024   0.508   2.837   2.340
  196THF     C3 3025   0.447   2.733   2.242
  196THF     O1 3026   0.359   2.650   2.321
  196THF     C4 3027   0.358   2.698   2.457
  196THF     H1 3028   0.576   2.683   2.483
  196THF     H2 3029   0.506   2.826   2.561
  196THF     H3 3030   0.611   2.864   2.314
  196THF     H4 3031   0.448   2.929   2.342
  196THF     H5 3032   0.391   2.781   2.161
  196THF     H6 3033   0.525   2.669   2.199
  196THF     H7 3034   0.279   2.773   2.467
  196THF     H8 3035   0.338   2.615   2.525
  197THF     C1 3036   2.753   1.046   2.246
  197THF     C2 3037   2.615   1.077   2.306
  197THF     C3 3038   2.525   0.979   2.231
  197THF     O1 3039   2.609   0.871   2.186
  197THF     C4 3040   2.743   0.893   2.232
  197THF     H1 3041   2.766   1.096   2.149
  197THF     H2 3042   2.837   1.076   2.309
  197THF     H3 3043   2.584   1.181   2.287
  197THF     H4 3044   2.612   1.060   2.414
  197THF     H5 3045   2.444   0.940   2.295
  197THF     H6 3046   2.477   1.025   2.144
  197THF     H7 3047   2.757   0.842   2.328
  197THF     H8 3048   2.816   0.851   2.161
  198THF     C1 3049   1.107   2.818   2.754
  198THF     C2 3050   1.133   2.755   2.616
  198THF     C3 3051   1.118   2.879   2.525
  198THF     O1 3052   1.164   2.989   2.606
  198THF     C4 3053   1.192   2.946   2.739
  198THF     H1 3054   1.002   2.842   2.769
  198THF     H2 3055   1.139   2.753   2.836
  198THF     H3 3056   1.058   2.678   2.594
  198THF     H4 3057   1.232   2.709   2.608
  198THF     H5 3058   1.178   2.872   2.433
  198THF     H6 3059   1.014   2.897   2.498
  198THF     H7 3060   1.299   2.926   2.748
  198THF     H8 3061   1.164   3.024   2.811
  199THF     C1 3062   2.377   1.651   3.191
  199THF     C2 3063   2.480   1.584   3.099
  199THF     C3 3064   2.599   1.582   3.197
  199THF     O1 3065   2.541   1.541   3.320
  199THF     C4 3066   2.403   1.577   3.322
  199THF     H1 3067   2.396   1.759   3.201
  199THF     H2 3068   2.273   1.638   3.156
  199THF     H3 3069   2.500   1.642   3.008
  199THF     H4 3070   2.449   1.483   3.071
  199THF     H5 3071   2.679   1.513   3.167
  199THF     H6 3072   2.642   1.682   3.212
  199THF     H7 3073   2.345   1.483   3.327
  199THF     H8 3074   2.382   1.637   3.411
  200THF     C1 3075   0.668   2.431   3.190
  200THF     C2 3076   0.689   2.303   3.273
  200THF     C3 3077   0.808   2.236   3.200
  200THF     O1 3078   0.873   2.341   3.127
  200THF     C4 3079   0.814   2.466   3.161
  200THF     H1 3080   0.612   2.412   3.098
  200THF     H2 3081   0.617   2.509   3.247
  200THF     H3 3082   0.599   2.241   3.274
  200THF     H4 3083   0.714   2.326   3.377
  200THF     H5 3084   0.879   2.189   3.269
  200THF     H6 3085   0.773   2.161   3.128
  200THF     H7 3086   0.864   2.506   3.250
  200THF     H8 3087   0.824   2.537   3.078
  201THF     C1 3088   2.850   0.657   3.577
  201THF     C2 3089   2.829   0.807   3.612
  201THF     C3 3090   2.732   0.854   3.501
  201THF     O1 3091   2.678   0.733   3.444
  201THF     C4 3092   2.708   0.624   3.532
  201THF     H1 3093   2.920   0.642   3.494
  201THF     H2 3094   2.884   0.597   3.662
  201THF     H3 3095   2.923   0.864   3.614
  201THF     H4 3096   2.782   0.819   3.710
  201THF     H5 3097   2.650   0.917   3.539
  201THF     H6 3098   2.783   0.908   3.421
  201THF     H7 3099   2.638   0.622   3.617
  201THF     H8 3100   2.700   0.529   3.477
  202THF     C1 3101   1.355   0.310   3.202
  202THF     C2 3102   1.213   0.337   3.254
  202THF     C3 3103   1.144   0.208   3.207
  202THF     O1 3104   1.241   0.106   3.232
  202THF     C4 3105   1.374   0.163   3.239
  202THF     H1 3106   1.359   0.320   3.093
  202THF     H2 3107   1.431   0.376   3.246
  202THF     H3 3108   1.168   0.428   3.215
  202THF     H4 3109   1.212   0.343   3.364
  202THF     H5 3110   1.052   0.185   3.262
  202THF     H6 3111   1.121   0.210   3.099
  202THF     H7 3112   1.412   0.150   3.341
  202THF     H8 3113   1.442   0.111   3.170
  203THF     C1 3114   1.969   1.522   3.496
  203THF     C2 3115   2.121   1.538   3.483
  203THF     C3 3116   2.151   1.606   3.619
  203THF     O1 3117   2.062   1.543   3.713
  203THF     C4 3118   1.960   1.471   3.641
  203THF     H1 3119   1.916   1.617   3.483
  203THF     H2 3120   1.928   1.451   3.423
  203THF     H3 3121   2.147   1.601   3.397
  203THF     H4 3122   2.172   1.442   3.474
  203THF     H5 3123   2.255   1.594   3.651
  203THF     H6 3124   2.126   1.713   3.617
  203THF     H7 3125   1.983   1.364   3.648
  203THF     H8 3126   1.862   1.489   3.687
  204THF     C1 3127   3.202   0.681   2.876
  204THF     C2 3128   3.129   0.599   2.985
  204THF     C3 3129   3.029   0.521   2.897
  204THF     O1 3130   3.105   0.484   2.780
  204THF     C4 3131   3.216   0.574   2.764
  204THF     H1 3132   3.142   0.766   2.842
  204THF     H2 3133   3.297   0.721   2.911
  204THF     H3 3134   3.078   0.663   3.058
  204THF     H4 3135   3.197   0.533   3.038
  204THF     H5 3136   2.990   0.431   2.945
  204THF     H6 3137   2.945   0.584   2.865
  204THF     H7 3138   3.306   0.513   2.778
  204THF     H8 3139   3.216   0.617   2.663
  205THF     C1 3140   1.497   1.453   3.372
  205THF     C2 3141   1.609   1.486   3.473
  205THF     C3 3142   1.661   1.344   3.492
  205THF     O1 3143   1.667   1.292   3.358
  205THF     C4 3144   1.572   1.361   3.275
  205THF     H1 3145   1.415   1.398   3.418
  205THF     H2 3146   1.457   1.541   3.320
  205THF     H3 3147   1.575   1.530   3.567
  205THF     H4 3148   1.685   1.551   3.430
  205THF     H5 3149   1.761   1.342   3.538
  205THF     H6 3150   1.594   1.282   3.553
  205THF     H7 3151   1.627   1.418   3.199
  205THF     H8 3152   1.505   1.290   3.225
  206THF     C1 3153   3.190   2.717   2.353
  206THF     C2 3154   3.140   2.863   2.341
  206THF     C3 3155   3.262   2.933   2.279
  206THF     O1 3156   3.331   2.830   2.205
  206THF     C4 3157   3.259   2.706   2.217
  206THF     H1 3158   3.259   2.702   2.436
  206THF     H2 3159   3.108   2.645   2.362
  206THF     H3 3160   3.112   2.909   2.436
  206THF     H4 3161   3.053   2.867   2.274
  206THF     H5 3162   3.235   3.016   2.213
  206THF     H6 3163   3.330   2.969   2.357
  206THF     H7 3164   3.182   2.701   2.139
  206THF     H8 3165   3.326   2.621   2.207
  207THF     C1 3166   2.445   2.543   3.598
  207THF     C2 3167   2.354   2.421   3.622
  207THF     C3 3168   2.432   2.314   3.543
  207THF     O1 3169   2.570   2.352   3.557
  207THF     C4 3170   2.582   2.479   3.621
  207THF     H1 3171   2.436   2.581   3.496
  207THF     H2 3172   2.426   2.625   3.669
  207THF     H3 3173   2.252   2.433   3.583
  207THF     H4 3174   2.346   2.395   3.728
  207THF     H5 3175   2.415   2.213   3.582
  207THF     H6 3176   2.406   2.316   3.437
  207THF     H7 3177   2.603   2.463   3.728
  207THF     H8 3178   2.665   2.535   3.576
  208THF     C1 3179   1.937   1.043   2.225
  208THF     C2 3180   2.042   1.136   2.286
  208THF     C3 3181   2.005   1.276   2.230
  208THF     O1 3182   1.878   1.263   2.169
  208THF     C4 3183   1.819   1.141   2.209
  208THF     H1 3184   1.974   1.002   2.130
  208THF     H2 3185   1.915   0.956   2.288
  208THF     H3 3186   2.143   1.106   2.256
  208THF     H4 3187   2.036   1.133   2.395
  208THF     H5 3188   1.997   1.354   2.307
  208THF     H6 3189   2.078   1.310   2.155
  208THF     H7 3190   1.765   1.161   2.302
  208THF     H8 3191   1.745   1.108   2.135
  209THF     C1 3192   2.668   2.066   2.949
  209THF     C2 3193   2.582   1.992   3.053
  209THF     C3 3194   2.473   1.940   2.959
  209THF     O1 3195   2.545   1.890   2.848
  209THF     C4 3196   2.663   1.970   2.829
  209THF     H1 3197   2.626   2.164   2.922
  209THF     H2 3198   2.770   2.081   2.985
  209THF     H3 3199   2.546   2.058   3.133
  209THF     H4 3200   2.636   1.911   3.103
  209THF     H5 3201   2.413   1.859   3.004
  209THF     H6 3202   2.406   2.020   2.924
  209THF     H7 3203   2.750   1.904   2.830
  209THF     H8 3204   2.658   2.021   2.732
  210THF     C1 3205   1.871   1.303   3.018
  210THF     C2 3206   1.907   1.370   3.152
  210THF     C3 3207   2.060   1.357   3.163
  210THF     O1 3208   2.109   1.323   3.031
  210THF     C4 3209   2.000   1.323   2.937
  210THF     H1 3210   1.846   1.197   3.030
  210THF     H2 3211   1.784   1.350   2.970
  210THF     H3 3212   1.862   1.316   3.236
  210THF     H4 3213   1.872   1.474   3.158
  210THF     H5 3214   2.109   1.449   3.198
  210THF     H6 3215   2.088   1.277   3.232
  210THF     H7 3216   2.000   1.419   2.884
  210THF     H8 3217   2.016   1.244   2.862
  211THF     C1 3218   2.769   2.998   3.564
  211THF     C2 3219   2.753   2.892   3.454
  211THF     C3 3220   2.901   2.854   3.431
  211THF     O1 3221   2.961   2.859   3.561
  211THF     C4 3222   2.876   2.930   3.652
  211THF     H1 3223   2.804   3.094   3.524
  211THF     H2 3224   2.676   3.017   3.619
  211THF     H3 3225   2.705   2.931   3.363
  211THF     H4 3226   2.694   2.806   3.488
  211THF     H5 3227   2.913   2.753   3.392
  211THF     H6 3228   2.952   2.926   3.366
  211THF     H7 3229   2.832   2.857   3.720
  211THF     H8 3230   2.936   3.002   3.709
  212THF     C1 3231   2.619   2.162   2.198
  212THF     C2 3232   2.741   2.142   2.287
  212THF     C3 3233   2.690   2.210   2.413
  212THF     O1 3234   2.553   2.168   2.423
  212THF     C4 3235   2.498   2.155   2.292
  212THF     H1 3236   2.622   2.260   2.149
  212THF     H2 3237   2.614   2.081   2.125
  212THF     H3 3238   2.831   2.189   2.245
  212THF     H4 3239   2.765   2.036   2.302
  212THF     H5 3240   2.745   2.179   2.503
  212THF     H6 3241   2.693   2.320   2.405
  212THF     H7 3242   2.447   2.058   2.283
  212THF     H8 3243   2.425   2.235   2.272
  213THF     C1 3244   1.543   0.672   2.729
  213THF     C2 3245   1.656   0.684   2.834
  213THF     C3 3246   1.694   0.831   2.814
  213THF     O1 3247   1.568   0.900   2.797
  213THF     C4 3248   1.469   0.807   2.748
  213THF     H1 3249   1.583   0.659   2.628
  213THF     H2 3250   1.480   0.584   2.747
  213THF     H3 3251   1.740   0.617   2.814
  213THF     H4 3252   1.620   0.667   2.936
  213THF     H5 3253   1.748   0.874   2.899
  213THF     H6 3254   1.755   0.842   2.723
  213THF     H7 3255   1.390   0.801   2.824
  213THF     H8 3256   1.423   0.846   2.656
  214THF     C1 3257   1.594   2.488   2.358
  214THF     C2 3258   1.442   2.502   2.350
  214THF     C3 3259   1.431   2.645   2.289
  214THF     O1 3260   1.533   2.645   2.189
  214THF     C4 3261   1.631   2.543   2.219
  214THF     H1 3262   1.638   2.548   2.439
  214THF     H2 3263   1.626   2.384   2.371
  214THF     H3 3264   1.391   2.494   2.447
  214THF     H4 3265   1.400   2.426   2.283
  214THF     H5 3266   1.335   2.669   2.242
  214THF     H6 3267   1.454   2.722   2.363
  214THF     H7 3268   1.622   2.464   2.144
  214THF     H8 3269   1.731   2.587   2.213
  215THF     C1 3270   2.387   0.720   3.611
  215THF     C2 3271   2.382   0.666   3.466
  215THF     C3 3272   2.234   0.625   3.458
  215THF     O1 3273   2.164   0.722   3.537
  215THF     C4 3274   2.258   0.802   3.611
  215THF     H1 3275   2.383   0.639   3.686
  215THF     H2 3276   2.475   0.782   3.632
  215THF     H3 3277   2.449   0.581   3.449
  215THF     H4 3278   2.406   0.743   3.393
  215THF     H5 3279   2.195   0.625   3.355
  215THF     H6 3280   2.217   0.526   3.502
  215THF     H7 3281   2.274   0.897   3.557
  215THF     H8 3282   2.219   0.825   3.711
  216THF     C1 3283   0.346   0.246   2.467
  216THF     C2 3284   0.307   0.320   2.596
  216THF     C3 3285   0.358   0.221   2.703
  216THF     O1 3286   0.477   0.162   2.647
  216THF     C4 3287   0.485   0.192   2.506
  216THF     H1 3288   0.276   0.164   2.444
  216THF     H2 3289   0.349   0.312   2.379
  216THF     H3 3290   0.199   0.339   2.604
  216THF     H4 3291   0.358   0.417   2.603
  216THF     H5 3292   0.382   0.271   2.798
  216THF     H6 3293   0.285   0.142   2.722
  216THF     H7 3294   0.563   0.268   2.492
  216THF     H8 3295   0.513   0.102   2.451
  217THF     C1 3296   1.188   1.543   3.494
  217THF     C2 3297   1.110   1.673   3.508
  217THF     C3 3298   1.098   1.678   3.662
  217THF     O1 3299   1.229   1.642   3.708
  217THF     C4 3300   1.293   1.561   3.607
  217THF     H1 3301   1.123   1.457   3.514
  217THF     H2 3302   1.232   1.531   3.394
  217THF     H3 3303   1.014   1.668   3.455
  217THF     H4 3304   1.165   1.759   3.467
  217THF     H5 3305   1.071   1.777   3.701
  217THF     H6 3306   1.026   1.605   3.701
  217THF     H7 3307   1.380   1.617   3.570
  217THF     H8 3308   1.327   1.466   3.650
  218THF     C1 3309   1.335   3.182   3.038
  218THF     C2 3310   1.297   3.270   3.157
  218THF     C3 3311   1.302   3.171   3.274
  218THF     O1 3312   1.401   3.075   3.235
  218THF     C4 3313   1.449   3.103   3.103
  218THF     H1 3314   1.253   3.118   3.003
  218THF     H2 3315   1.367   3.244   2.953
  218THF     H3 3316   1.200   3.318   3.144
  218THF     H4 3317   1.374   3.346   3.171
  218THF     H5 3318   1.330   3.218   3.369
  218THF     H6 3319   1.208   3.116   3.287
  218THF     H7 3320   1.541   3.163   3.112
  218THF     H8 3321   1.471   3.009   3.052
  219THF     C1 3322   3.096   3.230   3.355
  219THF     C2 3323   3.169   3.225   3.491
  219THF     C3 3324   3.225   3.080   3.489
  219THF     O1 3325   3.247   3.049   3.349
  219THF     C4 3326   3.201   3.159   3.268
  219THF     H1 3327   3.001   3.176   3.357
  219THF     H2 3328   3.077   3.333   3.321
  219THF     H3 3329   3.102   3.242   3.576
  219THF     H4 3330   3.250   3.298   3.497
  219THF     H5 3331   3.318   3.070   3.545
  219THF     H6 3332   3.152   3.009   3.529
  219THF     H7 3333   3.286   3.224   3.245
  219THF     H8 3334   3.160   3.120   3.173
  220THF     C1 3335   1.991   2.310   3.532
  220THF     C2 3336   1.887   2.258   3.432
  220THF     C3 3337   1.903   2.107   3.452
  220THF     O1 3338   1.919   2.092   3.594
  220THF     C4 3339   1.961   2.217   3.650
  220THF     H1 3340   2.093   2.296   3.494
  220THF     H2 3341   1.978   2.416   3.557
  220THF     H3 3342   1.909   2.286   3.329
  220THF     H4 3343   1.787   2.293   3.458
  220THF     H5 3344   1.818   2.048   3.416
  220THF     H6 3345   1.993   2.069   3.400
  220THF     H7 3346   1.879   2.256   3.712
  220THF     H8 3347   2.051   2.202   3.712
  221THF     C1 3348   1.272   1.701   3.102
  221THF     C2 3349   1.346   1.780   3.211
  221THF     C3 3350   1.250   1.898   3.235
  221THF     O1 3351   1.117   1.848   3.208
  221THF     C4 3352   1.127   1.715   3.151
  221THF     H1 3353   1.286   1.745   3.002
  221THF     H2 3354   1.304   1.596   3.096
  221THF     H3 3355   1.446   1.812   3.179
  221THF     H4 3356   1.356   1.724   3.304
  221THF     H5 3357   1.255   1.937   3.337
  221THF     H6 3358   1.271   1.981   3.166
  221THF     H7 3359   1.102   1.642   3.229
  221THF     H8 3360   1.054   1.705   3.070
  222THF     C1 3361   0.501   2.760   3.372
  222THF     C2 3362   0.415   2.720   3.251
  222THF     C3 3363   0.463   2.819   3.143
  222THF     O1 3364   0.598   2.855   3.177
  222THF     C4 3365   0.634   2.798   3.303
  222THF     H1 3366   0.459   2.845   3.426
  222THF     H2 3367   0.513   2.679   3.444
  222THF     H3 3368   0.308   2.730   3.271
  222THF     H4 3369   0.432   2.616   3.220
  222THF     H5 3370   0.462   2.775   3.042
  222THF     H6 3371   0.402   2.910   3.143
  222THF     H7 3372   0.699   2.711   3.284
  222THF     H8 3373   0.692   2.871   3.362
  223THF     C1 3374   0.768   1.897   2.871
  223THF     C2 3375   0.875   1.795   2.828
  223THF     C3 3376   0.974   1.884   2.751
  223THF     O1 3377   0.945   2.018   2.793
  223THF     C4 3378   0.861   2.012   2.909
  223THF     H1 3379   0.703   1.925   2.787
  223THF     H2 3380   0.706   1.861   2.954
  223THF     H3 3381   0.836   1.713   2.767
  223THF     H4 3382   0.922   1.749   2.916
  223THF     H5 3383   1.078   1.857   2.773
  223THF     H6 3384   0.958   1.879   2.642
  223THF     H7 3385   0.920   1.989   2.998
  223THF     H8 3386   0.809   2.108   2.922
  224THF     C1 3387   3.144   2.022   2.760
  224THF     C2 3388   3.260   1.941   2.700
  224THF     C3 3389   3.187   1.811   2.661
  224THF     O1 3390   3.050   1.849   2.636
  224THF     C4 3391   3.030   1.988   2.664
  224THF     H1 3392   3.119   1.989   2.862
  224THF     H2 3393   3.167   2.129   2.763
  224THF     H3 3394   3.341   1.924   2.771
  224THF     H4 3395   3.302   1.991   2.612
  224THF     H5 3396   3.230   1.764   2.571
  224THF     H6 3397   3.188   1.737   2.742
  224THF     H7 3398   3.036   2.045   2.570
  224THF     H8 3399   2.930   2.002   2.707
  225THF     C1 3400   3.068   1.750   2.217
  225THF     C2 3401   3.219   1.766   2.235
  225THF     C3 3402   3.224   1.909   2.292
  225THF     O1 3403   3.102   1.922   2.367
  225THF     C4 3404   3.023   1.803   2.352
  225THF     H1 3405   3.027   1.816   2.139
  225THF     H2 3406   3.039   1.647   2.197
  225THF     H3 3407   3.276   1.755   2.142
  225THF     H4 3408   3.259   1.693   2.307
  225THF     H5 3409   3.310   1.927   2.357
  225THF     H6 3410   3.223   1.985   2.212
  225THF     H7 3411   3.048   1.730   2.431
  225THF     H8 3412   2.917   1.830   2.359
  226THF     C1 3413   3.214   1.130   2.764
  226THF     C2 3414   3.076   1.087   2.816
  226THF     C3 3415   3.071   1.174   2.942
  226THF     O1 3416   3.115   1.302   2.896
  226THF     C4 3417   3.211   1.283   2.792
  226THF     H1 3418   3.293   1.081   2.823
  226THF     H2 3419   3.232   1.105   2.659
  226THF     H3 3420   3.072   0.980   2.839
  226THF     H4 3421   2.994   1.111   2.748
  226THF     H5 3422   2.971   1.184   2.986
  226THF     H6 3423   3.139   1.135   3.018
  226THF     H7 3424   3.178   1.341   2.705
  226THF     H8 3425   3.308   1.322   2.826
  227THF     C1 3426   1.001   2.593   2.291
  227THF     C2 3427   1.100   2.490   2.234
  227THF     C3 3428   1.048   2.355   2.284
  227THF     O1 3429   0.909   2.376   2.313
  227THF     C4 3430   0.871   2.512   2.285
  227THF     H1 3431   1.027   2.619   2.395
  227THF     H2 3432   0.997   2.686   2.233
  227THF     H3 3433   1.203   2.509   2.266
  227THF     H4 3434   1.100   2.491   2.125
  227THF     H5 3435   1.059   2.275   2.210
  227THF     H6 3436   1.099   2.324   2.377
  227THF     H7 3437   0.826   2.517   2.185
  227THF     H8 3438   0.798   2.546   2.359
  228THF     C1 3439   1.303   0.633   3.460
  228THF     C2 3440   1.188   0.731   3.481
  228THF     C3 3441   1.156   0.702   3.628
  228THF     O1 3442   1.285   0.697   3.688
  228THF     C4 3443   1.384   0.660   3.589
  228THF     H1 3444   1.266   0.529   3.457
  228THF     H2 3445   1.359   0.650   3.367
  228THF     H3 3446   1.104   0.714   3.413
  228THF     H4 3447   1.223   0.834   3.471
  228THF     H5 3448   1.096   0.780   3.676
  228THF     H6 3449   1.105   0.605   3.641
  228THF     H7 3450   1.452   0.746   3.580
  228THF     H8 3451   1.443   0.574   3.623
  229THF     C1 3452   1.772   0.181   2.599
  229THF     C2 3453   1.689   0.281   2.516
  229THF     C3 3454   1.739   0.417   2.570
  229THF     O1 3455   1.875   0.396   2.616
  229THF     C4 3456   1.906   0.255   2.617
  229THF     H1 3457   1.725   0.161   2.695
  229THF     H2 3458   1.783   0.084   2.548
  229THF     H3 3459   1.581   0.267   2.532
  229THF     H4 3460   1.706   0.269   2.408
  229THF     H5 3461   1.739   0.496   2.494
  229THF     H6 3462   1.679   0.450   2.655
  229THF     H7 3463   1.977   0.233   2.536
  229THF     H8 3464   1.956   0.229   2.712
  230THF     C1 3465   2.798   0.506   3.186
  230THF     C2 3466   2.763   0.357   3.170
  230THF     C3 3467   2.628   0.354   3.242
  230THF     O1 3468   2.564   0.478   3.210
  230THF     C4 3469   2.660   0.568   3.154
  230THF     H1 3470   2.831   0.531   3.287
  230THF     H2 3471   2.876   0.539   3.117
  230THF     H3 3472   2.834   0.290   3.219
  230THF     H4 3473   2.754   0.327   3.065
  230THF     H5 3474   2.566   0.268   3.211
  230THF     H6 3475   2.641   0.351   3.351
  230THF     H7 3476   2.643   0.574   3.046
  230THF     H8 3477   2.646   0.667   3.199
  231THF     C1 3478   2.628   1.615   3.626
  231THF     C2 3479   2.746   1.536   3.565
  231THF     C3 3480   2.737   1.401   3.641
  231THF     O1 3481   2.605   1.393   3.696
  231THF     C4 3482   2.527   1.501   3.643
  231THF     H1 3483   2.654   1.661   3.722
  231THF     H2 3484   2.591   1.694   3.559
  231THF     H3 3485   2.842   1.586   3.582
  231THF     H4 3486   2.738   1.522   3.457
  231THF     H5 3487   2.756   1.316   3.575
  231THF     H6 3488   2.808   1.399   3.725
  231THF     H7 3489   2.483   1.470   3.547
  231THF     H8 3490   2.445   1.524   3.712
  232THF     C1 3491   2.949   0.818   2.638
  232THF     C2 3492   2.905   0.686   2.572
  232THF     C3 3493   2.754   0.695   2.603
  232THF     O1 3494   2.722   0.830   2.567
  232THF     C4 3495   2.838   0.914   2.588
  232THF     H1 3496   2.946   0.811   2.747
  232THF     H2 3497   3.049   0.850   2.608
  232THF     H3 3498   2.951   0.597   2.617
  232THF     H4 3499   2.924   0.684   2.465
  232THF     H5 3500   2.695   0.625   2.544
  232THF     H6 3501   2.732   0.680   2.709
  232THF     H7 3502   2.866   0.959   2.492
  232THF     H8 3503   2.814   0.994   2.659
  233THF     C1 3504   2.071   2.656   3.215
  233THF     C2 3505   1.989   2.684   3.088
  233THF     C3 3506   1.957   2.542   3.041
  233THF     O1 3507   1.950   2.462   3.159
  233THF     C4 3508   1.991   2.539   3.274
  233THF     H1 3509   2.174   2.626   3.193
  233THF     H2 3510   2.075   2.742   3.283
  233THF     H3 3511   2.046   2.740   3.014
  233THF     H4 3512   1.898   2.740   3.110
  233THF     H5 3513   1.862   2.537   2.987
  233THF     H6 3514   2.037   2.501   2.978
  233THF     H7 3515   1.901   2.568   3.330
  233THF     H8 3516   2.051   2.478   3.342
  234THF     C1 3517   0.184   2.216   2.596
  234THF     C2 3518   0.251   2.101   2.518
  234THF     C3 3519   0.181   2.113   2.380
  234THF     O1 3520   0.146   2.252   2.365
  234THF     C4 3521   0.174   2.324   2.486
  234THF     H1 3522   0.086   2.187   2.635
  234THF     H2 3523   0.247   2.250   2.678
  234THF     H3 3524   0.235   2.004   2.565
  234THF     H4 3525   0.359   2.116   2.510
  234THF     H5 3526   0.245   2.082   2.296
  234THF     H6 3527   0.089   2.054   2.377
  234THF     H7 3528   0.269   2.378   2.476
  234THF     H8 3529   0.094   2.397   2.505
  235THF     C1 3530   2.753   2.515   3.284
  235THF     C2 3531   2.825   2.466   3.157
  235THF     C3 3532   2.768   2.325   3.146
  235THF     O1 3533   2.634   2.336   3.194
  235THF     C4 3534   2.612   2.467   3.249
  235THF     H1 3535   2.791   2.467   3.375
  235THF     H2 3536   2.757   2.624   3.297
  235THF     H3 3537   2.934   2.467   3.165
  235THF     H4 3538   2.797   2.525   3.069
  235THF     H5 3539   2.767   2.290   3.041
  235THF     H6 3540   2.821   2.252   3.208
  235THF     H7 3541   2.567   2.530   3.171
  235THF     H8 3542   2.544   2.462   3.334
  236THF     C1 3543   2.624   1.465   2.291
  236THF     C2 3544   2.617   1.603   2.228
  236THF     C3 3545   2.766   1.637   2.226
  236THF     O1 3546   2.829   1.515   2.184
  236THF     C4 3547   2.752   1.404   2.232
  236THF     H1 3548   2.634   1.471   2.400
  236THF     H2 3549   2.536   1.406   2.263
  236THF     H3 3550   2.555   1.674   2.285
  236THF     H4 3551   2.573   1.598   2.128
  236THF     H5 3552   2.791   1.719   2.157
  236THF     H6 3553   2.802   1.661   2.326
  236THF     H7 3554   2.728   1.337   2.148
  236THF     H8 3555   2.809   1.347   2.307
  237THF     C1 3556   2.631   1.870   2.479
  237THF     C2 3557   2.482   1.876   2.521
  237THF     C3 3558   2.447   1.727   2.540
  237THF     O1 3559   2.572   1.657   2.552
  237THF     C4 3560   2.680   1.751   2.561
  237THF     H1 3561   2.642   1.855   2.371
  237THF     H2 3562   2.687   1.960   2.506
  237THF     H3 3563   2.417   1.923   2.447
  237THF     H4 3564   2.470   1.933   2.614
  237THF     H5 3565   2.385   1.709   2.628
  237THF     H6 3566   2.397   1.688   2.451
  237THF     H7 3567   2.695   1.777   2.667
  237THF     H8 3568   2.773   1.706   2.524
  238THF     C1 3569   2.844   0.957   3.010
  238THF     C2 3570   2.763   1.016   3.127
  238THF     C3 3571   2.623   0.963   3.096
  238THF     O1 3572   2.644   0.838   3.027
  238THF     C4 3573   2.783   0.818   3.003
  238THF     H1 3574   2.828   1.012   2.917
  238THF     H2 3575   2.951   0.953   3.032
  238THF     H3 3576   2.769   1.126   3.133
  238THF     H4 3577   2.797   0.977   3.224
  238THF     H5 3578   2.563   0.946   3.186
  238THF     H6 3579   2.569   1.032   3.030
  238THF     H7 3580   2.825   0.756   3.083
  238THF     H8 3581   2.797   0.769   2.906
  239THF     C1 3582   0.610   1.064   2.550
  239THF     C2 3583   0.587   1.183   2.645
  239THF     C3 3584   0.483   1.261   2.565
  239THF     O1 3585   0.392   1.158   2.522
  239THF     C4 3586   0.465   1.034   2.505
  239THF     H1 3587   0.673   1.089   2.465
  239THF     H2 3588   0.658   0.979   2.601
  239THF     H3 3589   0.679   1.241   2.661
  239THF     H4 3590   0.544   1.154   2.741
  239THF     H5 3591   0.429   1.336   2.624
  239THF     H6 3592   0.529   1.310   2.479
  239THF     H7 3593   0.418   0.960   2.571
  239THF     H8 3594   0.458   0.999   2.402
  240THF     C1 3595   3.151   0.783   3.388
  240THF     C2 3596   3.054   0.843   3.284
  240THF     C3 3597   3.042   0.986   3.341
  240THF     O1 3598   3.178   1.020   3.372
  240THF     C4 3599   3.250   0.901   3.409
  240THF     H1 3600   3.102   0.759   3.482
  240THF     H2 3601   3.201   0.693   3.352
  240THF     H3 3602   2.958   0.791   3.279
  240THF     H4 3603   3.097   0.847   3.184
  240THF     H5 3604   3.001   1.057   3.269
  240THF     H6 3605   2.982   0.989   3.433
  240THF     H7 3606   3.338   0.894   3.345
  240THF     H8 3607   3.282   0.909   3.514
  241THF     C1 3608   3.045   2.072   3.260
  241THF     C2 3609   3.100   2.212   3.294
  241THF     C3 3610   3.234   2.204   3.221
  241THF     O1 3611   3.197   2.147   3.094
  241THF     C4 3612   3.088   2.056   3.113
  241THF     H1 3613   3.090   1.994   3.323
  241THF     H2 3614   2.936   2.065   3.270
  241THF     H3 3615   3.112   2.229   3.402
  241THF     H4 3616   3.038   2.292   3.253
  241THF     H5 3617   3.280   2.302   3.205
  241THF     H6 3618   3.304   2.137   3.271
  241THF     H7 3619   3.007   2.086   3.045
  241THF     H8 3620   3.119   1.954   3.090
  242THF     C1 3621   1.720   2.974   2.410
  242THF     C2 3622   1.605   3.017   2.321
  242THF     C3 3623   1.651   2.963   2.187
  242THF     O1 3624   1.745   2.857   2.213
  242THF     C4 3625   1.744   2.833   2.352
  242THF     H1 3626   1.807   3.039   2.397
  242THF     H2 3627   1.687   2.975   2.514
  242THF     H3 3628   1.596   3.126   2.316
  242THF     H4 3629   1.510   2.972   2.350
  242THF     H5 3630   1.566   2.924   2.130
  242THF     H6 3631   1.705   3.042   2.134
  242THF     H7 3632   1.662   2.765   2.378
  242THF     H8 3633   1.839   2.788   2.380
  243THF     C1 3634   1.712   3.071   2.785
  243THF     C2 3635   1.705   3.210   2.851
  243THF     C3 3636   1.586   3.268   2.774
  243THF     O1 3637   1.493   3.159   2.764
  243THF     C4 3638   1.563   3.034   2.770
  243THF     H1 3639   1.761   3.079   2.688
  243THF     H2 3640   1.766   2.997   2.846
  243THF     H3 3641   1.796   3.269   2.838
  243THF     H4 3642   1.685   3.204   2.959
  243THF     H5 3643   1.539   3.353   2.825
  243THF     H6 3644   1.615   3.299   2.672
  243THF     H7 3645   1.527   2.977   2.856
  243THF     H8 3646   1.542   2.975   2.680
  244THF     C1 3647   1.910   2.181   2.920
  244THF     C2 3648   1.907   2.296   2.818
  244THF     C3 3649   1.872   2.221   2.688
  244THF     O1 3650   1.792   2.110   2.731
  244THF     C4 3651   1.785   2.106   2.874
  244THF     H1 3652   2.001   2.120   2.911
  244THF     H2 3653   1.903   2.216   3.023
  244THF     H3 3654   2.002   2.350   2.811
  244THF     H4 3655   1.828   2.368   2.843
  244THF     H5 3656   1.816   2.282   2.616
  244THF     H6 3657   1.962   2.183   2.639
  244THF     H7 3658   1.693   2.157   2.905
  244THF     H8 3659   1.780   2.002   2.909
  245THF     C1 3660   2.470   0.362   2.241
  245THF     C2 3661   2.461   0.516   2.236
  245THF     C3 3662   2.580   0.553   2.324
  245THF     O1 3663   2.683   0.459   2.289
  245THF     C4 3664   2.623   0.344   2.226
  245THF     H1 3665   2.431   0.322   2.335
  245THF     H2 3666   2.413   0.313   2.161
  245THF     H3 3667   2.366   0.556   2.272
  245THF     H4 3668   2.476   0.557   2.135
  245THF     H5 3669   2.616   0.655   2.307
  245THF     H6 3670   2.553   0.541   2.429
  245THF     H7 3671   2.653   0.347   2.121
  245THF     H8 3672   2.660   0.251   2.270
  246THF     C1 3673   2.158   0.879   3.112
  246THF     C2 3674   2.032   0.852   3.025
  246THF     C3 3675   1.928   0.920   3.116
  246THF     O1 3676   1.991   1.042   3.155
  246THF     C4 3677   2.133   1.027   3.146
  246THF     H1 3678   2.160   0.817   3.202
  246THF     H2 3679   2.253   0.865   3.059
  246THF     H3 3680   2.013   0.746   3.008
  246THF     H4 3681   2.036   0.902   2.928
  246THF     H5 3682   1.833   0.944   3.066
  246THF     H6 3683   1.909   0.862   3.207
  246THF     H7 3684   2.169   1.093   3.066
  246THF     H8 3685   2.178   1.057   3.241
  247THF     C1 3686   1.259   1.142   2.848
  247THF     C2 3687   1.155   1.029   2.871
  247THF     C3 3688   1.186   1.001   3.017
  247THF     O1 3689   1.191   1.132   3.074
  247THF     C4 3690   1.256   1.220   2.981
  247THF     H1 3691   1.359   1.100   2.829
  247THF     H2 3692   1.234   1.208   2.764
  247THF     H3 3693   1.171   0.943   2.805
  247THF     H4 3694   1.051   1.061   2.860
  247THF     H5 3695   1.108   0.941   3.067
  247THF     H6 3696   1.283   0.951   3.029
  247THF     H7 3697   1.196   1.312   2.973
  247THF     H8 3698   1.356   1.247   3.017
  248THF     C1 3699   0.680   1.295   3.224
  248THF     C2 3700   0.773   1.189   3.285
  248THF     C3 3701   0.726   1.190   3.432
  248THF     O1 3702   0.585   1.209   3.424
  248THF     C4 3703   0.550   1.271   3.300
  248THF     H1 3704   0.717   1.397   3.240
  248THF     H2 3705   0.665   1.279   3.116
  248THF     H3 3706   0.878   1.219   3.274
  248THF     H4 3707   0.760   1.090   3.239
  248THF     H5 3708   0.744   1.096   3.486
  248THF     H6 3709   0.773   1.271   3.489
  248THF     H7 3710   0.484   1.202   3.246
  248THF     H8 3711   0.496   1.364   3.320
  249THF     C1 3712   1.989   0.188   3.500
  249THF     C2 3713   1.905   0.180   3.630
  249THF     C3 3714   1.793   0.277   3.593
  249THF     O1 3715   1.758   0.237   3.459
  249THF     C4 3716   1.878   0.196   3.391
  249THF     H1 3717   2.051   0.278   3.502
  249THF     H2 3718   2.055   0.102   3.487
  249THF     H3 3719   1.961   0.211   3.719
  249THF     H4 3720   1.866   0.079   3.648
  249THF     H5 3721   1.706   0.269   3.659
  249THF     H6 3722   1.828   0.381   3.592
  249THF     H7 3723   1.858   0.099   3.343
  249THF     H8 3724   1.902   0.268   3.312
  250THF     C1 3725   2.746   3.152   3.140
  250THF     C2 3726   2.595   3.124   3.144
  250THF     C3 3727   2.551   3.229   3.248
  250THF     O1 3728   2.632   3.345   3.221
  250THF     C4 3729   2.747   3.307   3.142
  250THF     H1 3730   2.799   3.111   3.226
  250THF     H2 3731   2.793   3.113   3.049
  250THF     H3 3732   2.572   3.022   3.176
  250THF     H4 3733   2.547   3.141   3.047
  250THF     H5 3734   2.445   3.255   3.240
  250THF     H6 3735   2.571   3.195   3.351
  250THF     H7 3736   2.734   3.349   3.041
  250THF     H8 3737   2.838   3.349   3.186
  251THF     C1 3738   1.157   2.156   2.978
  251THF     C2 3739   1.269   2.259   2.959
  251THF     C3 3740   1.388   2.169   2.998
  251THF     O1 3741   1.360   2.040   2.944
  251THF     C4 3742   1.220   2.033   2.911
  251THF     H1 3743   1.132   2.137   3.083
  251THF     H2 3744   1.064   2.187   2.929
  251THF     H3 3745   1.259   2.347   3.023
  251THF     H4 3746   1.277   2.293   2.855
  251THF     H5 3747   1.483   2.206   2.959
  251THF     H6 3748   1.393   2.157   3.106
  251THF     H7 3749   1.211   2.038   2.802
  251THF     H8 3750   1.178   1.939   2.948
  252THF     C1 3751   0.464   2.284   2.248
  252THF     C2 3752   0.539   2.163   2.309
  252THF     C3 3753   0.678   2.170   2.243
  252THF     O1 3754   0.680   2.297   2.176
  252THF     C4 3755   0.580   2.381   2.233
  252THF     H1 3756   0.417   2.259   2.152
  252THF     H2 3757   0.386   2.326   2.312
  252THF     H3 3758   0.488   2.067   2.290
  252THF     H4 3759   0.550   2.174   2.418
  252THF     H5 3760   0.759   2.167   2.317
  252THF     H6 3761   0.694   2.091   2.169
  252THF     H7 3762   0.614   2.420   2.330
  252THF     H8 3763   0.558   2.465   2.165
  253THF     C1 3764   1.549   2.658   2.912
  253THF     C2 3765   1.602   2.595   2.782
  253THF     C3 3766   1.505   2.478   2.766
  253THF     O1 3767   1.378   2.536   2.799
  253THF     C4 3768   1.397   2.646   2.889
  253THF     H1 3769   1.582   2.601   3.001
  253THF     H2 3770   1.582   2.761   2.926
  253THF     H3 3771   1.706   2.562   2.791
  253THF     H4 3772   1.594   2.664   2.698
  253THF     H5 3773   1.502   2.438   2.663
  253THF     H6 3774   1.527   2.396   2.836
  253THF     H7 3775   1.360   2.737   2.840
  253THF     H8 3776   1.340   2.630   2.982
  254THF     C1 3777   2.596   1.368   2.851
  254THF     C2 3778   2.633   1.353   2.703
  254THF     C3 3779   2.784   1.374   2.703
  254THF     O1 3780   2.828   1.324   2.830
  254THF     C4 3781   2.714   1.293   2.914
  254THF     H1 3782   2.591   1.474   2.881
  254THF     H2 3783   2.499   1.326   2.879
  254THF     H3 3784   2.584   1.430   2.642
  254THF     H4 3785   2.609   1.254   2.663
  254THF     H5 3786   2.832   1.319   2.621
  254THF     H6 3787   2.809   1.480   2.694
  254THF     H7 3788   2.696   1.185   2.910
  254THF     H8 3789   2.734   1.323   3.017
  255THF     C1 3790   2.001   1.826   3.018
  255THF     C2 3791   2.008   1.672   3.022
  255THF     C3 3792   2.126   1.640   2.926
  255THF     O1 3793   2.199   1.762   2.913
  255THF     C4 3794   2.149   1.857   3.007
  255THF     H1 3795   1.948   1.863   2.930
  255THF     H2 3796   1.954   1.869   3.108
  255THF     H3 3797   1.914   1.625   2.990
  255THF     H4 3798   2.030   1.639   3.124
  255THF     H5 3799   2.192   1.561   2.963
  255THF     H6 3800   2.091   1.611   2.826
  255THF     H7 3801   2.201   1.845   3.103
  255THF     H8 3802   2.167   1.958   2.967
  256THF     C1 3803   3.002   1.711   2.968
  256THF     C2 3804   2.919   1.677   2.844
  256THF     C3 3805   2.790   1.635   2.913
  256THF     O1 3806   2.772   1.731   3.017
  256THF     C4 3807   2.899   1.785   3.055
  256THF     H1 3808   3.034   1.617   3.016
  256THF     H2 3809   3.092   1.770   2.946
  256THF     H3 3810   2.964   1.600   2.782
  256THF     H4 3811   2.896   1.765   2.782
  256THF     H5 3812   2.704   1.639   2.844
  256THF     H6 3813   2.799   1.536   2.959
  256THF     H7 3814   2.896   1.892   3.031
  256THF     H8 3815   2.914   1.772   3.163
  257THF     C1 3816   3.021   2.372   2.401
  257THF     C2 3817   3.147   2.348   2.487
  257THF     C3 3818   3.211   2.236   2.405
  257THF     O1 3819   3.188   2.270   2.267
  257THF     C4 3820   3.082   2.367   2.259
  257THF     H1 3821   2.948   2.292   2.416
  257THF     H2 3822   2.972   2.467   2.425
  257THF     H3 3823   3.123   2.316   2.589
  257THF     H4 3824   3.211   2.437   2.493
  257THF     H5 3825   3.318   2.224   2.425
  257THF     H6 3826   3.161   2.140   2.427
  257THF     H7 3827   3.127   2.462   2.229
  257THF     H8 3828   3.010   2.337   2.182
  258THF     C1 3829   1.678   2.346   3.164
  258THF     C2 3830   1.657   2.196   3.196
  258THF     C3 3831   1.551   2.208   3.305
  258THF     O1 3832   1.469   2.318   3.263
  258THF     C4 3833   1.536   2.401   3.169
  258THF     H1 3834   1.735   2.396   3.244
  258THF     H2 3835   1.726   2.365   3.068
  258THF     H3 3836   1.749   2.145   3.229
  258THF     H4 3837   1.621   2.137   3.111
  258THF     H5 3838   1.489   2.117   3.314
  258THF     H6 3839   1.592   2.232   3.404
  258THF     H7 3840   1.485   2.395   3.072
  258THF     H8 3841   1.530   2.505   3.203
  259THF     C1 3842   0.700   1.554   2.418
  259THF     C2 3843   0.786   1.631   2.517
  259THF     C3 3844   0.910   1.660   2.430
  259THF     O1 3845   0.864   1.671   2.295
  259THF     C4 3846   0.726   1.632   2.287
  259THF     H1 3847   0.732   1.450   2.410
  259THF     H2 3848   0.594   1.555   2.449
  259THF     H3 3849   0.810   1.571   2.605
  259THF     H4 3850   0.738   1.724   2.549
  259THF     H5 3851   0.958   1.754   2.460
  259THF     H6 3852   0.984   1.579   2.435
  259THF     H7 3853   0.665   1.722   2.281
  259THF     H8 3854   0.710   1.571   2.198
  260THF     C1 3855   1.064   1.151   2.577
  260THF     C2 3856   0.971   1.104   2.468
  260THF     C3 3857   0.907   1.238   2.427
  260THF     O1 3858   1.012   1.335   2.439
  260THF     C4 3859   1.123   1.278   2.511
  260THF     H1 3860   1.009   1.176   2.668
  260THF     H2 3861   1.140   1.076   2.600
  260THF     H3 3862   0.898   1.031   2.505
  260THF     H4 3863   1.027   1.059   2.385
  260THF     H5 3864   0.867   1.238   2.325
  260THF     H6 3865   0.827   1.266   2.496
  260THF     H7 3866   1.202   1.252   2.439
  260THF     H8 3867   1.162   1.350   2.583
  261THF     C1 3868   2.509   2.822   2.945
  261THF     C2 3869   2.492   2.674   2.904
  261THF     C3 3870   2.344   2.657   2.938
  261THF     O1 3871   2.282   2.779   2.897
  261THF     C4 3872   2.384   2.878   2.876
  261THF     H1 3873   2.505   2.835   3.054
  261THF     H2 3874   2.601   2.870   2.909
  261THF     H3 3875   2.559   2.606   2.957
  261THF     H4 3876   2.508   2.660   2.796
  261THF     H5 3877   2.297   2.571   2.886
  261THF     H6 3878   2.330   2.647   3.046
  261THF     H7 3879   2.399   2.887   2.767
  261THF     H8 3880   2.354   2.975   2.917
  262THF     C1 3881   1.412   0.496   2.390
  262THF     C2 3882   1.337   0.631   2.405
  262THF     C3 3883   1.196   0.578   2.436
  262THF     O1 3884   1.218   0.469   2.526
  262THF     C4 3885   1.350   0.414   2.505
  262THF     H1 3886   1.393   0.449   2.293
  262THF     H2 3887   1.521   0.508   2.400
  262THF     H3 3888   1.341   0.692   2.314
  262THF     H4 3889   1.377   0.691   2.488
  262THF     H5 3890   1.131   0.653   2.483
  262THF     H6 3891   1.146   0.540   2.346
  262THF     H7 3892   1.407   0.425   2.598
  262THF     H8 3893   1.343   0.307   2.481
  263THF     C1 3894   3.099   0.274   3.292
  263THF     C2 3895   3.077   0.199   3.158
  263THF     C3 3896   3.223   0.191   3.110
  263THF     O1 3897   3.296   0.154   3.228
  263THF     C4 3898   3.225   0.202   3.345
  263THF     H1 3899   3.118   0.381   3.276
  263THF     H2 3900   3.015   0.265   3.361
  263THF     H3 3901   3.014   0.254   3.087
  263THF     H4 3902   3.034   0.100   3.173
  263THF     H5 3903   3.238   0.116   3.031
  263THF     H6 3904   3.259   0.289   3.074
  263THF     H7 3905   3.199   0.114   3.405
  263THF     H8 3906   3.290   0.268   3.404
  264THF     C1 3907   3.063   1.353   3.624
  264THF     C2 3908   3.200   1.314   3.567
  264THF     C3 3909   3.233   1.188   3.650
  264THF     O1 3910   3.107   1.131   3.689
  264THF     C4 3911   3.001   1.212   3.635
  264THF     H1 3912   3.071   1.403   3.721
  264THF     H2 3913   3.008   1.418   3.555
  264THF     H3 3914   3.274   1.394   3.578
  264THF     H4 3915   3.194   1.288   3.461
  264THF     H5 3916   3.290   1.114   3.592
  264THF     H6 3917   3.291   1.212   3.740
  264THF     H7 3918   2.972   1.173   3.537
  264THF     H8 3919   2.915   1.207   3.703
  265THF     C1 3920   0.287   1.176   3.451
  265THF     C2 3921   0.323   1.263   3.575
  265THF     C3 3922   0.192   1.339   3.600
  265THF     O1 3923   0.090   1.265   3.529
  265THF     C4 3924   0.144   1.138   3.489
  265THF     H1 3925   0.286   1.235   3.358
  265THF     H2 3926   0.352   1.090   3.437
  265THF     H3 3927   0.407   1.331   3.557
  265THF     H4 3928   0.350   1.200   3.661
  265THF     H5 3929   0.167   1.346   3.706
  265THF     H6 3930   0.195   1.440   3.557
  265THF     H7 3931   0.141   1.067   3.572
  265THF     H8 3932   0.086   1.098   3.404
  266THF     C1 3933   0.532   1.915   3.389
  266THF     C2 3934   0.640   1.937   3.281
  266THF     C3 3935   0.554   1.955   3.154
  266THF     O1 3936   0.426   2.001   3.200
  266THF     C4 3937   0.424   2.013   3.343
  266THF     H1 3938   0.493   1.813   3.390
  266THF     H2 3939   0.569   1.941   3.489
  266THF     H3 3940   0.711   1.854   3.270
  266THF     H4 3941   0.700   2.026   3.304
  266THF     H5 3942   0.596   2.027   3.083
  266THF     H6 3943   0.539   1.859   3.103
  266THF     H7 3944   0.447   2.116   3.371
  266THF     H8 3945   0.324   1.987   3.380
  267THF     C1 3946   1.761   0.609   3.205
  267THF     C2 3947   1.903   0.561   3.239
  267THF     C3 3948   1.901   0.565   3.393
  267THF     O1 3949   1.761   0.563   3.431
  267THF     C4 3950   1.684   0.534   3.314
  267THF     H1 3951   1.752   0.718   3.219
  267THF     H2 3952   1.730   0.583   3.104
  267THF     H3 3953   1.983   0.623   3.197
  267THF     H4 3954   1.918   0.459   3.201
  267THF     H5 3955   1.953   0.479   3.438
  267THF     H6 3956   1.946   0.657   3.431
  267THF     H7 3957   1.683   0.426   3.297
  267THF     H8 3958   1.581   0.569   3.328
  268THF     C1 3959   1.888   0.903   3.532
  268THF     C2 3960   2.007   0.987   3.481
  268THF     C3 3961   1.934   1.120   3.457
  268THF     O1 3962   1.862   1.134   3.580
  268THF     C4 3963   1.817   1.004   3.625
  268THF     H1 3964   1.824   0.871   3.449
  268THF     H2 3965   1.919   0.813   3.586
  268THF     H3 3966   2.054   0.944   3.392
  268THF     H4 3967   2.084   1.001   3.558
  268THF     H5 3968   2.002   1.205   3.443
  268THF     H6 3969   1.865   1.115   3.373
  268THF     H7 3970   1.848   0.992   3.729
  268THF     H8 3971   1.708   0.997   3.618
  269THF     C1 3972   1.768   3.252   3.521
  269THF     C2 3973   1.893   3.246   3.430
  269THF     C3 3974   2.008   3.242   3.534
  269THF     O1 3975   1.951   3.184   3.653
  269THF     C4 3976   1.813   3.152   3.630
  269THF     H1 3977   1.750   3.352   3.561
  269THF     H2 3978   1.678   3.220   3.468
  269THF     H3 3979   1.901   3.330   3.360
  269THF     H4 3980   1.889   3.154   3.371
  269THF     H5 3981   2.093   3.182   3.499
  269THF     H6 3982   2.044   3.342   3.560
  269THF     H7 3983   1.806   3.048   3.595
  269THF     H8 3984   1.755   3.162   3.723
  270THF     C1 3985   2.155   0.316   3.220
  270THF     C2 3986   2.212   0.175   3.252
  270THF     C3 3987   2.311   0.157   3.135
  270THF     O1 3988   2.352   0.289   3.099
  270THF     C4 3989   2.285   0.386   3.183
  270THF     H1 3990   2.085   0.315   3.137
  270THF     H2 3991   2.109   0.365   3.306
  270THF     H3 3992   2.134   0.097   3.253
  270THF     H4 3993   2.264   0.173   3.348
  270THF     H5 3994   2.399   0.097   3.162
  270THF     H6 3995   2.262   0.112   3.047
  270THF     H7 3996   2.346   0.406   3.272
  270THF     H8 3997   2.270   0.481   3.130
  271THF     C1 3998   2.971   2.901   3.025
  271THF     C2 3999   3.083   2.805   2.979
  271THF     C3 4000   3.092   2.709   3.100
  271THF     O1 4001   2.965   2.720   3.166
  271THF     C4 4002   2.875   2.800   3.087
  271THF     H1 4003   3.006   2.973   3.101
  271THF     H2 4004   2.923   2.956   2.944
  271THF     H3 4005   3.178   2.856   2.959
  271THF     H4 4006   3.054   2.751   2.888
  271THF     H5 4007   3.110   2.605   3.070
  271THF     H6 4008   3.169   2.740   3.171
  271THF     H7 4009   2.827   2.737   3.011
  271THF     H8 4010   2.799   2.845   3.151
  272THF     C1 4011   2.496   1.186   3.464
  272THF     C2 4012   2.408   1.095   3.376
  272THF     C3 4013   2.406   1.179   3.247
  272THF     O1 4014   2.540   1.228   3.233
  272THF     C4 4015   2.604   1.229   3.362
  272THF     H1 4016   2.437   1.271   3.500
  272THF     H2 4017   2.538   1.135   3.551
  272THF     H3 4018   2.308   1.080   3.419
  272THF     H4 4019   2.453   0.996   3.362
  272THF     H5 4020   2.381   1.120   3.158
  272THF     H6 4021   2.337   1.264   3.254
  272THF     H7 4022   2.687   1.158   3.359
  272THF     H8 4023   2.645   1.329   3.382
  273THF     C1 4024   2.057   3.166   2.485
  273THF     C2 4025   2.067   3.134   2.635
  273THF     C3 4026   2.069   3.278   2.691
  273THF     O1 4027   1.978   3.353   2.607
  273THF     C4 4028   1.951   3.278   2.486
  273THF     H1 4029   2.151   3.202   2.443
  273THF     H2 4030   2.024   3.079   2.426
  273THF     H3 4031   2.155   3.076   2.661
  273THF     H4 4032   1.980   3.078   2.671
  273THF     H5 4033   2.036   3.284   2.796
  273THF     H6 4034   2.169   3.323   2.682
  273THF     H7 4035   1.849   3.238   2.493
  273THF     H8 4036   1.958   3.344   2.398
  274THF     C1 4037   2.882   3.250   2.235
  274THF     C2 4038   2.759   3.217   2.317
  274THF     C3 4039   2.724   3.076   2.263
  274THF     O1 4040   2.851   3.016   2.233
  274THF     C4 4041   2.955   3.115   2.241
  274THF     H1 4042   2.850   3.276   2.133
  274THF     H2 4043   2.941   3.334   2.275
  274THF     H3 4044   2.678   3.289   2.303
  274THF     H4 4045   2.787   3.212   2.423
  274THF     H5 4046   2.668   3.015   2.334
  274THF     H6 4047   2.665   3.082   2.170
  274THF     H7 4048   3.007   3.104   2.337
  274THF     H8 4049   3.027   3.100   2.160
  275THF     C1 4050   0.641   1.689   3.630
  275THF     C2 4051   0.729   1.676   3.504
  275THF     C3 4052   0.780   1.532   3.522
  275THF     O1 4053   0.669   1.462   3.584
  275THF     C4 4054   0.566   1.556   3.618
  275THF     H1 4055   0.700   1.695   3.721
  275THF     H2 4056   0.572   1.775   3.629
  275THF     H3 4057   0.809   1.751   3.499
  275THF     H4 4058   0.672   1.681   3.410
  275THF     H5 4059   0.808   1.485   3.427
  275THF     H6 4060   0.865   1.526   3.591
  275THF     H7 4061   0.492   1.558   3.537
  275THF     H8 4062   0.517   1.525   3.711
  276THF     C1 4063   1.595   0.931   2.338
  276THF     C2 4064   1.677   0.883   2.460
  276THF     C3 4065   1.733   1.015   2.515
  276THF     O1 4066   1.624   1.106   2.501
  276THF     C4 4067   1.540   1.067   2.389
  276THF     H1 4068   1.656   0.940   2.248
  276THF     H2 4069   1.514   0.861   2.313
  276THF     H3 4070   1.755   0.809   2.436
  276THF     H4 4071   1.609   0.840   2.533
  276THF     H5 4072   1.762   1.012   2.621
  276THF     H6 4073   1.821   1.050   2.460
  276THF     H7 4074   1.437   1.059   2.427
  276THF     H8 4075   1.542   1.145   2.312
  277THF     C1 4076   0.804   3.223   2.679
  277THF     C2 4077   0.687   3.245   2.581
  277THF     C3 4078   0.740   3.166   2.460
  277THF     O1 4079   0.798   3.048   2.517
  277THF     C4 4080   0.834   3.073   2.655
  277THF     H1 4081   0.890   3.285   2.654
  277THF     H2 4082   0.778   3.244   2.784
  277THF     H3 4083   0.669   3.351   2.559
  277THF     H4 4084   0.592   3.202   2.617
  277THF     H5 4085   0.662   3.138   2.388
  277THF     H6 4086   0.819   3.222   2.407
  277THF     H7 4087   0.775   3.007   2.718
  277THF     H8 4088   0.940   3.050   2.671
  278THF     C1 4089   2.443   0.866   2.784
  278THF     C2 4090   2.309   0.942   2.775
  278THF     C3 4091   2.347   1.066   2.856
  278THF     O1 4092   2.480   1.096   2.812
  278THF     C4 4093   2.541   0.980   2.754
  278THF     H1 4094   2.456   0.825   2.885
  278THF     H2 4095   2.455   0.782   2.715
  278THF     H3 4096   2.226   0.887   2.822
  278THF     H4 4097   2.280   0.967   2.672
  278THF     H5 4098   2.280   1.151   2.839
  278THF     H6 4099   2.351   1.044   2.963
  278THF     H7 4100   2.550   0.997   2.646
  278THF     H8 4101   2.640   0.964   2.796
  279THF     C1 4102   1.183   1.122   3.409
  279THF     C2 4103   1.088   1.024   3.337
  279THF     C3 4104   0.986   0.989   3.448
  279THF     O1 4105   0.991   1.098   3.542
  279THF     C4 4106   1.081   1.199   3.494
  279THF     H1 4107   1.256   1.070   3.472
  279THF     H2 4108   1.238   1.187   3.340
  279THF     H3 4109   1.139   0.937   3.295
  279THF     H4 4110   1.036   1.073   3.254
  279THF     H5 4111   0.885   0.976   3.407
  279THF     H6 4112   1.010   0.898   3.504
  279THF     H7 4113   1.024   1.271   3.434
  279THF     H8 4114   1.126   1.251   3.580
  280THF     C1 4115   1.567   1.020   3.325
  280THF     C2 4116   1.498   1.022   3.188
  280THF     C3 4117   1.532   0.880   3.140
  280THF     O1 4118   1.515   0.799   3.257
  280THF     C4 4119   1.528   0.881   3.375
  280THF     H1 4120   1.676   1.031   3.317
  280THF     H2 4121   1.528   1.096   3.393
  280THF     H3 4122   1.536   1.099   3.120
  280THF     H4 4123   1.390   1.035   3.201
  280THF     H5 4124   1.468   0.843   3.059
  280THF     H6 4125   1.637   0.873   3.108
  280THF     H7 4126   1.430   0.886   3.424
  280THF     H8 4127   1.601   0.838   3.444
  281THF     C1 4128   3.214   1.759   3.497
  281THF     C2 4129   3.061   1.742   3.502
  281THF     C3 4130   3.040   1.738   3.655
  281THF     O1 4131   3.135   1.831   3.709
  281THF     C4 4132   3.232   1.865   3.608
  281THF     H1 4133   3.266   1.666   3.521
  281THF     H2 4134   3.250   1.794   3.399
  281THF     H3 4135   3.023   1.652   3.453
  281THF     H4 4136   3.010   1.827   3.454
  281THF     H5 4137   2.939   1.765   3.687
  281THF     H6 4138   3.063   1.638   3.695
  281THF     H7 4139   3.209   1.966   3.572
  281THF     H8 4140   3.333   1.865   3.652
  282THF     C1 4141   0.324   1.350   2.270
  282THF     C2 4142   0.472   1.356   2.225
  282THF     C3 4143   0.515   1.209   2.220
  282THF     O1 4144   0.396   1.135   2.189
  282THF     C4 4145   0.279   1.208   2.230
  282THF     H1 4146   0.314   1.367   2.378
  282THF     H2 4147   0.264   1.427   2.220
  282THF     H3 4148   0.534   1.414   2.293
  282THF     H4 4149   0.482   1.406   2.128
  282THF     H5 4150   0.594   1.189   2.147
  282THF     H6 4151   0.555   1.177   2.317
  282THF     H7 4152   0.209   1.212   2.146
  282THF     H8 4153   0.229   1.155   2.313
  283THF     C1 4154   0.364   2.402   3.468
  283THF     C2 4155   0.256   2.513   3.470
  283THF     C3 4156   0.163   2.461   3.582
  283THF     O1 4157   0.249   2.390   3.673
  283THF     C4 4158   0.383   2.386   3.620
  283THF     H1 4159   0.327   2.310   3.422
  283THF     H2 4160   0.456   2.432   3.417
  283THF     H3 4161   0.204   2.524   3.374
  283THF     H4 4162   0.297   2.611   3.497
  283THF     H5 4163   0.110   2.542   3.634
  283THF     H6 4164   0.089   2.389   3.543
  283THF     H7 4165   0.440   2.469   3.663
  283THF     H8 4166   0.430   2.291   3.648
  284THF     C1 4167   1.238   2.487   3.380
  284THF     C2 4168   1.123   2.406   3.318
  284THF     C3 4169   1.182   2.264   3.321
  284THF     O1 4170   1.262   2.258   3.440
  284THF     C4 4171   1.289   2.391   3.489
  284THF     H1 4172   1.315   2.512   3.307
  284THF     H2 4173   1.203   2.582   3.422
  284THF     H3 4174   1.101   2.437   3.215
  284THF     H4 4175   1.031   2.412   3.377
  284THF     H5 4176   1.105   2.186   3.323
  284THF     H6 4177   1.246   2.247   3.234
  284THF     H7 4178   1.236   2.405   3.584
  284THF     H8 4179   1.397   2.401   3.508
  285THF     C1 4180   0.548   3.066   2.905
  285THF     C2 4181   0.610   3.151   3.017
  285THF     C3 4182   0.543   3.288   2.989
  285THF     O1 4183   0.411   3.257   2.940
  285THF     C4 4184   0.402   3.116   2.911
  285THF     H1 4185   0.592   3.088   2.807
  285THF     H2 4186   0.559   2.959   2.922
  285THF     H3 4187   0.719   3.155   3.013
  285THF     H4 4188   0.581   3.114   3.116
  285THF     H5 4189   0.536   3.351   3.079
  285THF     H6 4190   0.596   3.343   2.911
  285THF     H7 4191   0.346   3.067   2.992
  285THF     H8 4192   0.348   3.101   2.817
  286THF     C1 4193   3.087   3.108   2.754
  286THF     C2 4194   3.232   3.129   2.803
  286THF     C3 4195   3.235   3.284   2.803
  286THF     O1 4196   3.104   3.324   2.848
  286THF     C4 4197   3.014   3.212   2.840
  286THF     H1 4198   3.077   3.129   2.647
  286THF     H2 4199   3.052   3.006   2.771
  286THF     H3 4200   3.307   3.085   2.736
  286THF     H4 4201   3.248   3.089   2.903
  286THF     H5 4202   3.312   3.325   2.870
  286THF     H6 4203   3.251   3.323   2.702
  286THF     H7 4204   2.998   3.176   2.943
  286THF     H8 4205   2.918   3.244   2.798
  287THF     C1 4206   1.762   0.331   2.944
  287THF     C2 4207   1.614   0.339   2.984
  287THF     C3 4208   1.561   0.211   2.915
  287THF     O1 4209   1.664   0.113   2.938
  287THF     C4 4210   1.789   0.180   2.966
  287THF     H1 4211   1.776   0.360   2.839
  287THF     H2 4212   1.827   0.395   3.004
  287THF     H3 4213   1.564   0.430   2.948
  287THF     H4 4214   1.603   0.334   3.093
  287THF     H5 4215   1.465   0.175   2.955
  287THF     H6 4216   1.549   0.227   2.807
  287THF     H7 4217   1.816   0.160   3.070
  287THF     H8 4218   1.868   0.141   2.900
  288THF     C1 4219   1.379   0.151   3.622
  288THF     C2 4220   1.227   0.154   3.590
  288THF     C3 4221   1.187   0.297   3.637
  288THF     O1 4222   1.310   0.368   3.655
  288THF     C4 4223   1.415   0.297   3.589
  288THF     H1 4224   1.397   0.129   3.728
  288THF     H2 4225   1.434   0.078   3.562
  288THF     H3 4226   1.170   0.076   3.642
  288THF     H4 4227   1.208   0.142   3.483
  288THF     H5 4228   1.125   0.351   3.563
  288THF     H6 4229   1.133   0.296   3.732
  288THF     H7 4230   1.413   0.319   3.481
  288THF     H8 4231   1.512   0.329   3.630
  289THF     C1 4232   0.264   3.068   3.397
  289THF     C2 4233   0.204   3.156   3.286
  289THF     C3 4234   0.282   3.288   3.310
  289THF     O1 4235   0.414   3.246   3.349
  289THF     C4 4236   0.413   3.107   3.384
  289THF     H1 4237   0.225   3.093   3.496
  289THF     H2 4238   0.246   2.961   3.380
  289THF     H3 4239   0.096   3.169   3.297
  289THF     H4 4240   0.223   3.116   3.186
  289THF     H5 4241   0.287   3.351   3.221
  289THF     H6 4242   0.238   3.346   3.393
  289THF     H7 4243   0.461   3.051   3.302
  289THF     H8 4244   0.470   3.090   3.476
  290THF     C1 4245   2.194   1.971   3.537
  290THF     C2 4246   2.236   1.916   3.399
  290THF     C3 4247   2.379   1.972   3.397
  290THF     O1 4248   2.427   1.934   3.527
  290THF     C4 4249   2.319   1.942   3.622
  290THF     H1 4250   2.177   2.079   3.533
  290THF     H2 4251   2.104   1.923   3.576
  290THF     H3 4252   2.174   1.951   3.316
  290THF     H4 4253   2.236   1.807   3.397
  290THF     H5 4254   2.444   1.930   3.320
  290THF     H6 4255   2.380   2.082   3.388
  290THF     H7 4256   2.313   1.845   3.674
  290THF     H8 4257   2.339   2.021   3.696
  291THF     C1 4258   0.167   0.659   2.620
  291THF     C2 4259   0.154   0.621   2.769
  291THF     C3 4260   0.301   0.621   2.817
  291THF     O1 4261   0.372   0.704   2.724
  291THF     C4 4262   0.281   0.760   2.628
  291THF     H1 4263   0.194   0.574   2.556
  291THF     H2 4264   0.076   0.703   2.579
  291THF     H3 4265   0.109   0.522   2.784
  291THF     H4 4266   0.097   0.696   2.824
  291THF     H5 4267   0.311   0.661   2.918
  291THF     H6 4268   0.345   0.520   2.814
  291THF     H7 4269   0.247   0.858   2.665
  291THF     H8 4270   0.333   0.772   2.533
   3.40320   3.43847   3.80000
