THF comparator n4
 4270
    1GR      C1    1   0.000   0.000   1.900  0.0000  0.0000  0.0000
    1GR      C2    2   0.142   0.000   1.900  0.0000  0.0000  0.0000
    1GR      C3    3   0.213   0.123   1.900  0.0000  0.0000  0.0000
    1GR      C4    4   0.354   0.123   1.900  0.0000  0.0000  0.0000
    1GR      C5    5   0.000   0.246   1.900  0.0000  0.0000  0.0000
    1GR      C6    6   0.142   0.246   1.900  0.0000  0.0000  0.0000
    1GR      C7    7   0.213   0.368   1.900  0.0000  0.0000  0.0000
    1GR      C8    8   0.354   0.368   1.900  0.0000  0.0000  0.0000
    1GR      C9    9   0.000   0.491   1.900  0.0000  0.0000  0.0000
    1GR     C10   10   0.142   0.491   1.900  0.0000  0.0000  0.0000
    1GR     C11   11   0.213   0.614   1.900  0.0000  0.0000  0.0000
    1GR     C12   12   0.354   0.614   1.900  0.0000  0.0000  0.0000
    1GR     C13   13   0.000   0.737   1.900  0.0000  0.0000  0.0000
    1GR     C14   14   0.142   0.737   1.900  0.0000  0.0000  0.0000
    1GR     C15   15   0.213   0.860   1.900  0.0000  0.0000  0.0000
    1GR     C16   16   0.354   0.860   1.900  0.0000  0.0000  0.0000
    1GR     C17   17   0.000   0.982   1.900  0.0000  0.0000  0.0000
    1GR     C18   18   0.142   0.982   1.900  0.0000  0.0000  0.0000
    1GR     C19   19   0.213   1.105   1.900  0.0000  0.0000  0.0000
    1GR     C20   20   0.354   1.105   1.900  0.0000  0.0000  0.0000
    1GR     C21   21   0.000   1.228   1.900  0.0000  0.0000  0.0000
    1GR     C22   22   0.142   1.228   1.900  0.0000  0.0000  0.0000
    1GR     C23   23   0.213   1.351   1.900  0.0000  0.0000  0.0000
    1GR     C24   24   0.354   1.351   1.900  0.0000  0.0000  0.0000
    1GR     C25   25   0.000   1.474   1.900  0.0000  0.0000  0.0000
    1GR     C26   26   0.142   1.474   1.900  0.0000  0.0000  0.0000
    1GR     C27   27   0.213   1.596   1.900  0.0000  0.0000  0.0000
    1GR     C28   28   0.354   1.596   1.900  0.0000  0.0000  0.0000
    1GR     C29   29   0.000   1.719   1.900  0.0000  0.0000  0.0000
    1GR     C30   30   0.142   1.719   1.900  0.0000  0.0000  0.0000
    1GR     C31   31   0.213   1.842   1.900  0.0000  0.0000  0.0000
    1GR     C32   32   0.354   1.842   1.900  0.0000  0.0000  0.0000
    1GR     C33   33   0.000   1.965   1.900  0.0000  0.0000  0.0000
    1GR     C34   34   0.142   1.965   1.900  0.0000  0.0000  0.0000
    1GR     C35   35   0.213   2.088   1.900  0.0000  0.0000  0.0000
    1GR     C36   36   0.354   2.088   1.900  0.0000  0.0000  0.0000
    1GR     C37   37   0.000   2.210   1.900  0.0000  0.0000  0.0000
    1GR     C38   38   0.142   2.210   1.900  0.0000  0.0000  0.0000
    1GR     C39   39   0.213   2.333   1.900  0.0000  0.0000  0.0000
    1GR     C40   40   0.354   2.333   1.900  0.0000  0.0000  0.0000
    1GR     C41   41   0.000   2.456   1.900  0.0000  0.0000  0.0000
    1GR     C42   42   0.142   2.456   1.900  0.0000  0.0000  0.0000
    1GR     C43   43   0.213   2.579   1.900  0.0000  0.0000  0.0000
    1GR     C44   44   0.354   2.579   1.900  0.0000  0.0000  0.0000
    1GR     C45   45   0.000   2.702   1.900  0.0000  0.0000  0.0000
    1GR     C46   46   0.142   2.702   1.900  0.0000  0.0000  0.0000
    1GR     C47   47   0.213   2.824   1.900  0.0000  0.0000  0.0000
    1GR     C48   48   0.354   2.824   1.900  0.0000  0.0000  0.0000
    1GR     C49   49   0.000   2.947   1.900  0.0000  0.0000  0.0000
    1GR     C50   50   0.142   2.947   1.900  0.0000  0.0000  0.0000
    1GR     C51   51   0.213   3.070   1.900  0.0000  0.0000  0.0000
    1GR     C52   52   0.354   3.070   1.900  0.0000  0.0000  0.0000
    1GR     C53   53   0.000   3.193   1.900  0.0000  0.0000  0.0000
    1GR     C54   54   0.142   3.193   1.900  0.0000  0.0000  0.0000
    1GR     C55   55   0.213   3.316   1.900  0.0000  0.0000  0.0000
    1GR     C56   56   0.354   3.316   1.900  0.0000  0.0000  0.0000
    1GR     C57   57   0.425   0.000   1.900  0.0000  0.0000  0.0000
    1GR     C58   58   0.567   0.000   1.900  0.0000  0.0000  0.0000
    1GR     C59   59   0.638   0.123   1.900  0.0000  0.0000  0.0000
    1GR     C60   60   0.780   0.123   1.900  0.0000  0.0000  0.0000
    1GR     C61   61   0.425   0.246   1.900  0.0000  0.0000  0.0000
    1GR     C62   62   0.567   0.246   1.900  0.0000  0.0000  0.0000
    1GR     C63   63   0.638   0.368   1.900  0.0000  0.0000  0.0000
    1GR     C64   64   0.780   0.368   1.900  0.0000  0.0000  0.0000
    1GR     C65   65   0.425   0.491   1.900  0.0000  0.0000  0.0000
    1GR     C66   66   0.567   0.491   1.900  0.0000  0.0000  0.0000
    1GR     C67   67   0.638   0.614   1.900  0.0000  0.0000  0.0000
    1GR     C68   68   0.780   0.614   1.900  0.0000  0.0000  0.0000
    1GR     C69   69   0.425   0.737   1.900  0.0000  0.0000  0.0000
    1GR     C70   70   0.567   0.737   1.900  0.0000  0.0000  0.0000
    1GR     C71   71   0.638   0.860   1.900  0.0000  0.0000  0.0000
    1GR     C72   72   0.780   0.860   1.900  0.0000  0.0000  0.0000
    1GR     C73   73   0.425   0.982   1.900  0.0000  0.0000  0.0000
    1GR     C74   74   0.567   0.982   1.900  0.0000  0.0000  0.0000
    1GR     C75   75   0.638   1.105   1.900  0.0000  0.0000  0.0000
    1GR     C76   76   0.780   1.105   1.900  0.0000  0.0000  0.0000
    1GR     C77   77   0.425   1.228   1.900  0.0000  0.0000  0.0000
    1GR     C78   78   0.567   1.228   1.900  0.0000  0.0000  0.0000
    1GR     C79   79   0.638   1.351   1.900  0.0000  0.0000  0.0000
    1GR     C80   80   0.780   1.351   1.900  0.0000  0.0000  0.0000
    1GR     C81   81   0.425   1.474   1.900  0.0000  0.0000  0.0000
    1GR     C82   82   0.567   1.474   1.900  0.0000  0.0000  0.0000
    1GR     C83   83   0.638   1.596   1.900  0.0000  0.0000  0.0000
    1GR     C84   84   0.780   1.596   1.900  0.0000  0.0000  0.0000
    1GR     C85   85   0.425   1.719   1.900  0.0000  0.0000  0.0000
    1GR     C86   86   0.567   1.719   1.900  0.0000  0.0000  0.0000
    1GR     C87   87   0.638   1.842   1.900  0.0000  0.0000  0.0000
    1GR     C88   88   0.780   1.842   1.900  0.0000  0.0000  0.0000
    1GR     C89   89   0.425   1.965   1.900  0.0000  0.0000  0.0000
    1GR     C90   90   0.567   1.965   1.900  0.0000  0.0000  0.0000
    1GR     C91   91   0.638   2.088   1.900  0.0000  0.0000  0.0000
    1GR     C92   92   0.780   2.088   1.900  0.0000  0.0000  0.0000
    1GR     C93   93   0.425   2.210   1.900  0.0000  0.0000  0.0000
    1GR     C94   94   0.567   2.210   1.900  0.0000  0.0000  0.0000
    1GR     C95   95   0.638   2.333   1.900  0.0000  0.0000  0.0000
    1GR     C96   96   0.780   2.333   1.900  0.0000  0.0000  0.0000
    1GR     C97   97   0.425   2.456   1.900  0.0000  0.0000  0.0000
    1GR     C98   98   0.567   2.456   1.900  0.0000  0.0000  0.0000
    1GR     C99   99   0.638   2.579   1.900  0.0000  0.0000  0.0000
    1GR    C100  100   0.780   2.579   1.900  0.0000  0.0000  0.0000
    1GR    C101  101   0.425   2.702   1.900  0.0000  0.0000  0.0000
    1GR    C102  102   0.567   2.702   1.900  0.0000  0.0000  0.0000
    1GR    C103  103   0.638   2.824   1.900  0.0000  0.0000  0.0000
    1GR    C104  104   0.780   2.824   1.900  0.0000  0.0000  0.0000
    1GR    C105  105   0.425   2.947   1.900  0.0000  0.0000  0.0000
    1GR    C106  106   0.567   2.947   1.900  0.0000  0.0000  0.0000
    1GR    C107  107   0.638   3.070   1.900  0.0000  0.0000  0.0000
    1GR    C108  108   0.780   3.070   1.900  0.0000  0.0000  0.0000
    1GR    C109  109   0.425   3.193   1.900  0.0000  0.0000  0.0000
    1GR    C110  110   0.567   3.193   1.900  0.0000  0.0000  0.0000
    1GR    C111  111   0.638   3.316   1.900  0.0000  0.0000  0.0000
    1GR    C112  112   0.780   3.316   1.900  0.0000  0.0000  0.0000
    1GR    C113  113   0.851   0.000   1.900  0.0000  0.0000  0.0000
    1GR    C114  114   0.993   0.000   1.900  0.0000  0.0000  0.0000
    1GR    C115  115   1.064   0.123   1.900  0.0000  0.0000  0.0000
    1GR    C116  116   1.205   0.123   1.900  0.0000  0.0000  0.0000
    1GR    C117  117   0.851   0.246   1.900  0.0000  0.0000  0.0000
    1GR    C118  118   0.993   0.246   1.900  0.0000  0.0000  0.0000
    1GR    C119  119   1.064   0.368   1.900  0.0000  0.0000  0.0000
    1GR    C120  120   1.205   0.368   1.900  0.0000  0.0000  0.0000
    1GR    C121  121   0.851   0.491   1.900  0.0000  0.0000  0.0000
    1GR    C122  122   0.993   0.491   1.900  0.0000  0.0000  0.0000
    1GR    C123  123   1.064   0.614   1.900  0.0000  0.0000  0.0000
    1GR    C124  124   1.205   0.614   1.900  0.0000  0.0000  0.0000
    1GR    C125  125   0.851   0.737   1.900  0.0000  0.0000  0.0000
    1GR    C126  126   0.993   0.737   1.900  0.0000  0.0000  0.0000
    1GR    C127  127   1.064   0.860   1.900  0.0000  0.0000  0.0000
    1GR    C128  128   1.205   0.860   1.900  0.0000  0.0000  0.0000
    1GR    C129  129   0.851   0.982   1.900  0.0000  0.0000  0.0000
    1GR    C130  130   0.993   0.982   1.900  0.0000  0.0000  0.0000
    1GR    C131  131   1.064   1.105   1.900  0.0000  0.0000  0.0000
    1GR    C132  132   1.205   1.105   1.900  0.0000  0.0000  0.0000
    1GR    C133  133   0.851   1.228   1.900  0.0000  0.0000  0.0000
    1GR    C134  134   0.993   1.228   1.900  0.0000  0.0000  0.0000
    1GR    C135  135   1.064   1.351   1.900  0.0000  0.0000  0.0000
    1GR    C136  136   1.205   1.351   1.900  0.0000  0.0000  0.0000
    1GR    C137  137   0.851   1.474   1.900  0.0000  0.0000  0.0000
    1GR    C138  138   0.993   1.474   1.900  0.0000  0.0000  0.0000
    1GR    C139  139   1.064   1.596   1.900  0.0000  0.0000  0.0000
    1GR    C140  140   1.205   1.596   1.900  0.0000  0.0000  0.0000
    1GR    C141  141   0.851   1.719   1.900  0.0000  0.0000  0.0000
    1GR    C142  142   0.993   1.719   1.900  0.0000  0.0000  0.0000
    1GR    C143  143   1.064   1.842   1.900  0.0000  0.0000  0.0000
    1GR    C144  144   1.205   1.842   1.900  0.0000  0.0000  0.0000
    1GR    C145  145   0.851   1.965   1.900  0.0000  0.0000  0.0000
    1GR    C146  146   0.993   1.965   1.900  0.0000  0.0000  0.0000
    1GR    C147  147   1.064   2.088   1.900  0.0000  0.0000  0.0000
    1GR    C148  148   1.205   2.088   1.900  0.0000  0.0000  0.0000
    1GR    C149  149   0.851   2.210   1.900  0.0000  0.0000  0.0000
    1GR    C150  150   0.993   2.210   1.900  0.0000  0.0000  0.0000
    1GR    C151  151   1.064   2.333   1.900  0.0000  0.0000  0.0000
    1GR    C152  152   1.205   2.333   1.900  0.0000  0.0000  0.0000
    1GR    C153  153   0.851   2.456   1.900  0.0000  0.0000  0.0000
    1GR    C154  154   0.993   2.456   1.900  0.0000  0.0000  0.0000
    1GR    C155  155   1.064   2.579   1.900  0.0000  0.0000  0.0000
    1GR    C156  156   1.205   2.579   1.900  0.0000  0.0000  0.0000
    1GR    C157  157   0.851   2.702   1.900  0.0000  0.0000  0.0000
    1GR    C158  158   0.993   2.702   1.900  0.0000  0.0000  0.0000
    1GR    C159  159   1.064   2.824   1.900  0.0000  0.0000  0.0000
    1GR    C160  160   1.205   2.824   1.900  0.0000  0.0000  0.0000
    1GR    C161  161   0.851   2.947   1.900  0.0000  0.0000  0.0000
    1GR    C162  162   0.993   2.947   1.900  0.0000  0.0000  0.0000
    1GR    C163  163   1.064   3.070   1.900  0.0000  0.0000  0.0000
    1GR    C164  164   1.205   3.070   1.900  0.0000  0.0000  0.0000
    1GR    C165  165   0.851   3.193   1.900  0.0000  0.0000  0.0000
    1GR    C166  166   0.993   3.193   1.900  0.0000  0.0000  0.0000
    1GR    C167  167   1.064   3.316   1.900  0.0000  0.0000  0.0000
    1GR    C168  168   1.205   3.316   1.900  0.0000  0.0000  0.0000
    1GR    C169  169   1.276   0.000   1.900  0.0000  0.0000  0.0000
    1GR    C170  170   1.418   0.000   1.900  0.0000  0.0000  0.0000
    1GR    C171  171   1.489   0.123   1.900  0.0000  0.0000  0.0000
    1GR    C172  172   1.631   0.123   1.900  0.0000  0.0000  0.0000
    1GR    C173  173   1.276   0.246   1.900  0.0000  0.0000  0.0000
    1GR    C174  174   1.418   0.246   1.900  0.0000  0.0000  0.0000
    1GR    C175  175   1.489   0.368   1.900  0.0000  0.0000  0.0000
    1GR    C176  176   1.631   0.368   1.900  0.0000  0.0000  0.0000
    1GR    C177  177   1.276   0.491   1.900  0.0000  0.0000  0.0000
    1GR    C178  178   1.418   0.491   1.900  0.0000  0.0000  0.0000
    1GR    C179  179   1.489   0.614   1.900  0.0000  0.0000  0.0000
    1GR    C180  180   1.631   0.614   1.900  0.0000  0.0000  0.0000
    1GR    C181  181   1.276   0.737   1.900  0.0000  0.0000  0.0000
    1GR    C182  182   1.418   0.737   1.900  0.0000  0.0000  0.0000
    1GR    C183  183   1.489   0.860   1.900  0.0000  0.0000  0.0000
    1GR    C184  184   1.631   0.860   1.900  0.0000  0.0000  0.0000
    1GR    C185  185   1.276   0.982   1.900  0.0000  0.0000  0.0000
    1GR    C186  186   1.418   0.982   1.900  0.0000  0.0000  0.0000
    1GR    C187  187   1.489   1.105   1.900  0.0000  0.0000  0.0000
    1GR    C188  188   1.631   1.105   1.900  0.0000  0.0000  0.0000
    1GR    C189  189   1.276   1.228   1.900  0.0000  0.0000  0.0000
    1GR    C190  190   1.418   1.228   1.900  0.0000  0.0000  0.0000
    1GR    C191  191   1.489   1.351   1.900  0.0000  0.0000  0.0000
    1GR    C192  192   1.631   1.351   1.900  0.0000  0.0000  0.0000
    1GR    C193  193   1.276   1.474   1.900  0.0000  0.0000  0.0000
    1GR    C194  194   1.418   1.474   1.900  0.0000  0.0000  0.0000
    1GR    C195  195   1.489   1.596   1.900  0.0000  0.0000  0.0000
    1GR    C196  196   1.631   1.596   1.900  0.0000  0.0000  0.0000
    1GR    C197  197   1.276   1.719   1.900  0.0000  0.0000  0.0000
    1GR    C198  198   1.418   1.719   1.900  0.0000  0.0000  0.0000
    1GR    C199  199   1.489   1.842   1.900  0.0000  0.0000  0.0000
    1GR    C200  200   1.631   1.842   1.900  0.0000  0.0000  0.0000
    1GR    C201  201   1.276   1.965   1.900  0.0000  0.0000  0.0000
    1GR    C202  202   1.418   1.965   1.900  0.0000  0.0000  0.0000
    1GR    C203  203   1.489   2.088   1.900  0.0000  0.0000  0.0000
    1GR    C204  204   1.631   2.088   1.900  0.0000  0.0000  0.0000
    1GR    C205  205   1.276   2.210   1.900  0.0000  0.0000  0.0000
    1GR    C206  206   1.418   2.210   1.900  0.0000  0.0000  0.0000
    1GR    C207  207   1.489   2.333   1.900  0.0000  0.0000  0.0000
    1GR    C208  208   1.631   2.333   1.900  0.0000  0.0000  0.0000
    1GR    C209  209   1.276   2.456   1.900  0.0000  0.0000  0.0000
    1GR    C210  210   1.418   2.456   1.900  0.0000  0.0000  0.0000
    1GR    C211  211   1.489   2.579   1.900  0.0000  0.0000  0.0000
    1GR    C212  212   1.631   2.579   1.900  0.0000  0.0000  0.0000
    1GR    C213  213   1.276   2.702   1.900  0.0000  0.0000  0.0000
    1GR    C214  214   1.418   2.702   1.900  0.0000  0.0000  0.0000
    1GR    C215  215   1.489   2.824   1.900  0.0000  0.0000  0.0000
    1GR    C216  216   1.631   2.824   1.900  0.0000  0.0000  0.0000
    1GR    C217  217   1.276   2.947   1.900  0.0000  0.0000  0.0000
    1GR    C218  218   1.418   2.947   1.900  0.0000  0.0000  0.0000
    1GR    C219  219   1.489   3.070   1.900  0.0000  0.0000  0.0000
    1GR    C220  220   1.631   3.070   1.900  0.0000  0.0000  0.0000
    1GR    C221  221   1.276   3.193   1.900  0.0000  0.0000  0.0000
    1GR    C222  222   1.418   3.193   1.900  0.0000  0.0000  0.0000
    1GR    C223  223   1.489   3.316   1.900  0.0000  0.0000  0.0000
    1GR    C224  224   1.631   3.316   1.900  0.0000  0.0000  0.0000
    1GR    C225  225   1.702   0.000   1.900  0.0000  0.0000  0.0000
    1GR    C226  226   1.843   0.000   1.900  0.0000  0.0000  0.0000
    1GR    C227  227   1.914   0.123   1.900  0.0000  0.0000  0.0000
    1GR    C228  228   2.056   0.123   1.900  0.0000  0.0000  0.0000
    1GR    C229  229   1.702   0.246   1.900  0.0000  0.0000  0.0000
    1GR    C230  230   1.843   0.246   1.900  0.0000  0.0000  0.0000
    1GR    C231  231   1.914   0.368   1.900  0.0000  0.0000  0.0000
    1GR    C232  232   2.056   0.368   1.900  0.0000  0.0000  0.0000
    1GR    C233  233   1.702   0.491   1.900  0.0000  0.0000  0.0000
    1GR    C234  234   1.843   0.491   1.900  0.0000  0.0000  0.0000
    1GR    C235  235   1.914   0.614   1.900  0.0000  0.0000  0.0000
    1GR    C236  236   2.056   0.614   1.900  0.0000  0.0000  0.0000
    1GR    C237  237   1.702   0.737   1.900  0.0000  0.0000  0.0000
    1GR    C238  238   1.843   0.737   1.900  0.0000  0.0000  0.0000
    1GR    C239  239   1.914   0.860   1.900  0.0000  0.0000  0.0000
    1GR    C240  240   2.056   0.860   1.900  0.0000  0.0000  0.0000
    1GR    C241  241   1.702   0.982   1.900  0.0000  0.0000  0.0000
    1GR    C242  242   1.843   0.982   1.900  0.0000  0.0000  0.0000
    1GR    C243  243   1.914   1.105   1.900  0.0000  0.0000  0.0000
    1GR    C244  244   2.056   1.105   1.900  0.0000  0.0000  0.0000
    1GR    C245  245   1.702   1.228   1.900  0.0000  0.0000  0.0000
    1GR    C246  246   1.843   1.228   1.900  0.0000  0.0000  0.0000
    1GR    C247  247   1.914   1.351   1.900  0.0000  0.0000  0.0000
    1GR    C248  248   2.056   1.351   1.900  0.0000  0.0000  0.0000
    1GR    C249  249   1.702   1.474   1.900  0.0000  0.0000  0.0000
    1GR    C250  250   1.843   1.474   1.900  0.0000  0.0000  0.0000
    1GR    C251  251   1.914   1.596   1.900  0.0000  0.0000  0.0000
    1GR    C252  252   2.056   1.596   1.900  0.0000  0.0000  0.0000
    1GR    C253  253   1.702   1.719   1.900  0.0000  0.0000  0.0000
    1GR    C254  254   1.843   1.719   1.900  0.0000  0.0000  0.0000
    1GR    C255  255   1.914   1.842   1.900  0.0000  0.0000  0.0000
    1GR    C256  256   2.056   1.842   1.900  0.0000  0.0000  0.0000
    1GR    C257  257   1.702   1.965   1.900  0.0000  0.0000  0.0000
    1GR    C258  258   1.843   1.965   1.900  0.0000  0.0000  0.0000
    1GR    C259  259   1.914   2.088   1.900  0.0000  0.0000  0.0000
    1GR    C260  260   2.056   2.088   1.900  0.0000  0.0000  0.0000
    1GR    C261  261   1.702   2.210   1.900  0.0000  0.0000  0.0000
    1GR    C262  262   1.843   2.210   1.900  0.0000  0.0000  0.0000
    1GR    C263  263   1.914   2.333   1.900  0.0000  0.0000  0.0000
    1GR    C264  264   2.056   2.333   1.900  0.0000  0.0000  0.0000
    1GR    C265  265   1.702   2.456   1.900  0.0000  0.0000  0.0000
    1GR    C266  266   1.843   2.456   1.900  0.0000  0.0000  0.0000
    1GR    C267  267   1.914   2.579   1.900  0.0000  0.0000  0.0000
    1GR    C268  268   2.056   2.579   1.900  0.0000  0.0000  0.0000
    1GR    C269  269   1.702   2.702   1.900  0.0000  0.0000  0.0000
    1GR    C270  270   1.843   2.702   1.900  0.0000  0.0000  0.0000
    1GR    C271  271   1.914   2.824   1.900  0.0000  0.0000  0.0000
    1GR    C272  272   2.056   2.824   1.900  0.0000  0.0000  0.0000
    1GR    C273  273   1.702   2.947   1.900  0.0000  0.0000  0.0000
    1GR    C274  274   1.843   2.947   1.900  0.0000  0.0000  0.0000
    1GR    C275  275   1.914   3.070   1.900  0.0000  0.0000  0.0000
    1GR    C276  276   2.056   3.070   1.900  0.0000  0.0000  0.0000
    1GR    C277  277   1.702   3.193   1.900  0.0000  0.0000  0.0000
    1GR    C278  278   1.843   3.193   1.900  0.0000  0.0000  0.0000
    1GR    C279  279   1.914   3.316   1.900  0.0000  0.0000  0.0000
    1GR    C280  280   2.056   3.316   1.900  0.0000  0.0000  0.0000
    1GR    C281  281   2.127   0.000   1.900  0.0000  0.0000  0.0000
    1GR    C282  282   2.269   0.000   1.900  0.0000  0.0000  0.0000
    1GR    C283  283   2.340   0.123   1.900  0.0000  0.0000  0.0000
    1GR    C284  284   2.481   0.123   1.900  0.0000  0.0000  0.0000
    1GR    C285  285   2.127   0.246   1.900  0.0000  0.0000  0.0000
    1GR    C286  286   2.269   0.246   1.900  0.0000  0.0000  0.0000
    1GR    C287  287   2.340   0.368   1.900  0.0000  0.0000  0.0000
    1GR    C288  288   2.481   0.368   1.900  0.0000  0.0000  0.0000
    1GR    C289  289   2.127   0.491   1.900  0.0000  0.0000  0.0000
    1GR    C290  290   2.269   0.491   1.900  0.0000  0.0000  0.0000
    1GR    C291  291   2.340   0.614   1.900  0.0000  0.0000  0.0000
    1GR    C292  292   2.481   0.614   1.900  0.0000  0.0000  0.0000
    1GR    C293  293   2.127   0.737   1.900  0.0000  0.0000  0.0000
    1GR    C294  294   2.269   0.737   1.900  0.0000  0.0000  0.0000
    1GR    C295  295   2.340   0.860   1.900  0.0000  0.0000  0.0000
    1GR    C296  296   2.481   0.860   1.900  0.0000  0.0000  0.0000
    1GR    C297  297   2.127   0.982   1.900  0.0000  0.0000  0.0000
    1GR    C298  298   2.269   0.982   1.900  0.0000  0.0000  0.0000
    1GR    C299  299   2.340   1.105   1.900  0.0000  0.0000  0.0000
    1GR    C300  300   2.481   1.105   1.900  0.0000  0.0000  0.0000
    1GR    C301  301   2.127   1.228   1.900  0.0000  0.0000  0.0000
    1GR    C302  302   2.269   1.228   1.900  0.0000  0.0000  0.0000
    1GR    C303  303   2.340   1.351   1.900  0.0000  0.0000  0.0000
    1GR    C304  304   2.481   1.351   1.900  0.0000  0.0000  0.0000
    1GR    C305  305   2.127   1.474   1.900  0.0000  0.0000  0.0000
    1GR    C306  306   2.269   1.474   1.900  0.0000  0.0000  0.0000
    1GR    C307  307   2.340   1.596   1.900  0.0000  0.0000  0.0000
    1GR    C308  308   2.481   1.596   1.900  0.0000  0.0000  0.0000
    1GR    C309  309   2.127   1.719   1.900  0.0000  0.0000  0.0000
    1GR    C310  310   2.269   1.719   1.900  0.0000  0.0000  0.0000
    1GR    C311  311   2.340   1.842   1.900  0.0000  0.0000  0.0000
    1GR    C312  312   2.481   1.842   1.900  0.0000  0.0000  0.0000
    1GR    C313  313   2.127   1.965   1.900  0.0000  0.0000  0.0000
    1GR    C314  314   2.269   1.965   1.900  0.0000  0.0000  0.0000
    1GR    C315  315   2.340   2.088   1.900  0.0000  0.0000  0.0000
    1GR    C316  316   2.481   2.088   1.900  0.0000  0.0000  0.0000
    1GR    C317  317   2.127   2.210   1.900  0.0000  0.0000  0.0000
    1GR    C318  318   2.269   2.210   1.900  0.0000  0.0000  0.0000
    1GR    C319  319   2.340   2.333   1.900  0.0000  0.0000  0.0000
    1GR    C320  320   2.481   2.333   1.900  0.0000  0.0000  0.0000
    1GR    C321  321   2.127   2.456   1.900  0.0000  0.0000  0.0000
    1GR    C322  322   2.269   2.456   1.900  0.0000  0.0000  0.0000
    1GR    C323  323   2.340   2.579   1.900  0.0000  0.0000  0.0000
    1GR    C324  324   2.481   2.579   1.900  0.0000  0.0000  0.0000
    1GR    C325  325   2.127   2.702   1.900  0.0000  0.0000  0.0000
    1GR    C326  326   2.269   2.702   1.900  0.0000  0.0000  0.0000
    1GR    C327  327   2.340   2.824   1.900  0.0000  0.0000  0.0000
    1GR    C328  328   2.481   2.824   1.900  0.0000  0.0000  0.0000
    1GR    C329  329   2.127   2.947   1.900  0.0000  0.0000  0.0000
    1GR    C330  330   2.269   2.947   1.900  0.0000  0.0000  0.0000
    1GR    C331  331   2.340   3.070   1.900  0.0000  0.0000  0.0000
    1GR    C332  332   2.481   3.070   1.900  0.0000  0.0000  0.0000
    1GR    C333  333   2.127   3.193   1.900  0.0000  0.0000  0.0000
    1GR    C334  334   2.269   3.193   1.900  0.0000  0.0000  0.0000
    1GR    C335  335   2.340   3.316   1.900  0.0000  0.0000  0.0000
    1GR    C336  336   2.481   3.316   1.900  0.0000  0.0000  0.0000
    1GR    C337  337   2.552   0.000   1.900  0.0000  0.0000  0.0000
    1GR    C338  338   2.694   0.000   1.900  0.0000  0.0000  0.0000
    1GR    C339  339   2.765   0.123   1.900  0.0000  0.0000  0.0000
    1GR    C340  340   2.907   0.123   1.900  0.0000  0.0000  0.0000
    1GR    C341  341   2.552   0.246   1.900  0.0000  0.0000  0.0000
    1GR    C342  342   2.694   0.246   1.900  0.0000  0.0000  0.0000
    1GR    C343  343   2.765   0.368   1.900  0.0000  0.0000  0.0000
    1GR    C344  344   2.907   0.368   1.900  0.0000  0.0000  0.0000
    1GR    C345  345   2.552   0.491   1.900  0.0000  0.0000  0.0000
    1GR    C346  346   2.694   0.491   1.900  0.0000  0.0000  0.0000
    1GR    C347  347   2.765   0.614   1.900  0.0000  0.0000  0.0000
    1GR    C348  348   2.907   0.614   1.900  0.0000  0.0000  0.0000
    1GR    C349  349   2.552   0.737   1.900  0.0000  0.0000  0.0000
    1GR    C350  350   2.694   0.737   1.900  0.0000  0.0000  0.0000
    1GR    C351  351   2.765   0.860   1.900  0.0000  0.0000  0.0000
    1GR    C352  352   2.907   0.860   1.900  0.0000  0.0000  0.0000
    1GR    C353  353   2.552   0.982   1.900  0.0000  0.0000  0.0000
    1GR    C354  354   2.694   0.982   1.900  0.0000  0.0000  0.0000
    1GR    C355  355   2.765   1.105   1.900  0.0000  0.0000  0.0000
    1GR    C356  356   2.907   1.105   1.900  0.0000  0.0000  0.0000
    1GR    C357  357   2.552   1.228   1.900  0.0000  0.0000  0.0000
    1GR    C358  358   2.694   1.228   1.900  0.0000  0.0000  0.0000
    1GR    C359  359   2.765   1.351   1.900  0.0000  0.0000  0.0000
    1GR    C360  360   2.907   1.351   1.900  0.0000  0.0000  0.0000
    1GR    C361  361   2.552   1.474   1.900  0.0000  0.0000  0.0000
    1GR    C362  362   2.694   1.474   1.900  0.0000  0.0000  0.0000
    1GR    C363  363   2.765   1.596   1.900  0.0000  0.0000  0.0000
    1GR    C364  364   2.907   1.596   1.900  0.0000  0.0000  0.0000
    1GR    C365  365   2.552   1.719   1.900  0.0000  0.0000  0.0000
    1GR    C366  366   2.694   1.719   1.900  0.0000  0.0000  0.0000
    1GR    C367  367   2.765   1.842   1.900  0.0000  0.0000  0.0000
    1GR    C368  368   2.907   1.842   1.900  0.0000  0.0000  0.0000
    1GR    C369  369   2.552   1.965   1.900  0.0000  0.0000  0.0000
    1GR    C370  370   2.694   1.965   1.900  0.0000  0.0000  0.0000
    1GR    C371  371   2.765   2.088   1.900  0.0000  0.0000  0.0000
    1GR    C372  372   2.907   2.088   1.900  0.0000  0.0000  0.0000
    1GR    C373  373   2.552   2.210   1.900  0.0000  0.0000  0.0000
    1GR    C374  374   2.694   2.210   1.900  0.0000  0.0000  0.0000
    1GR    C375  375   2.765   2.333   1.900  0.0000  0.0000  0.0000
    1GR    C376  376   2.907   2.333   1.900  0.0000  0.0000  0.0000
    1GR    C377  377   2.552   2.456   1.900  0.0000  0.0000  0.0000
    1GR    C378  378   2.694   2.456   1.900  0.0000  0.0000  0.0000
    1GR    C379  379   2.765   2.579   1.900  0.0000  0.0000  0.0000
    1GR    C380  380   2.907   2.579   1.900  0.0000  0.0000  0.0000
    1GR    C381  381   2.552   2.702   1.900  0.0000  0.0000  0.0000
    1GR    C382  382   2.694   2.702   1.900  0.0000  0.0000  0.0000
    1GR    C383  383   2.765   2.824   1.900  0.0000  0.0000  0.0000
    1GR    C384  384   2.907   2.824   1.900  0.0000  0.0000  0.0000
    1GR    C385  385   2.552   2.947   1.900  0.0000  0.0000  0.0000
    1GR    C386  386   2.694   2.947   1.900  0.0000  0.0000  0.0000
    1GR    C387  387   2.765   3.070   1.900  0.0000  0.0000  0.0000
    1GR    C388  388   2.907   3.070   1.900  0.0000  0.0000  0.0000
    1GR    C389  389   2.552   3.193   1.900  0.0000  0.0000  0.0000
    1GR    C390  390   2.694   3.193   1.900  0.0000  0.0000  0.0000
    1GR    C391  391   2.765   3.316   1.900  0.0000  0.0000  0.0000
    1GR    C392  392   2.907   3.316   1.900  0.0000  0.0000  0.0000
    1GR    C393  393   2.978   3.438   1.900  0.0000  0.0000  0.0000
    1GR    C394  394   3.120   0.000   1.900  0.0000  0.0000  0.0000
    1GR    C395  395   3.191   0.123   1.900  0.0000  0.0000  0.0000
    1GR    C396  396   3.332   0.123   1.900  0.0000  0.0000  0.0000
    1GR    C397  397   2.978   0.246   1.900  0.0000  0.0000  0.0000
    1GR    C398  398   3.120   0.246   1.900  0.0000  0.0000  0.0000
    1GR    C399  399   3.191   0.368   1.900  0.0000  0.0000  0.0000
    1GR    C400  400   3.332   0.368   1.900  0.0000  0.0000  0.0000
    1GR    C401  401   2.978   0.491   1.900  0.0000  0.0000  0.0000
    1GR    C402  402   3.120   0.491   1.900  0.0000  0.0000  0.0000
    1GR    C403  403   3.191   0.614   1.900  0.0000  0.0000  0.0000
    1GR    C404  404   3.332   0.614   1.900  0.0000  0.0000  0.0000
    1GR    C405  405   2.978   0.737   1.900  0.0000  0.0000  0.0000
    1GR    C406  406   3.120   0.737   1.900  0.0000  0.0000  0.0000
    1GR    C407  407   3.191   0.860   1.900  0.0000  0.0000  0.0000
    1GR    C408  408   3.332   0.860   1.900  0.0000  0.0000  0.0000
    1GR    C409  409   2.978   0.982   1.900  0.0000  0.0000  0.0000
    1GR    C410  410   3.120   0.982   1.900  0.0000  0.0000  0.0000
    1GR    C411  411   3.191   1.105   1.900  0.0000  0.0000  0.0000
    1GR    C412  412   3.332   1.105   1.900  0.0000  0.0000  0.0000
    1GR    C413  413   2.978   1.228   1.900  0.0000  0.0000  0.0000
    1GR    C414  414   3.120   1.228   1.900  0.0000  0.0000  0.0000
    1GR    C415  415   3.191   1.351   1.900  0.0000  0.0000  0.0000
    1GR    C416  416   3.332   1.351   1.900  0.0000  0.0000  0.0000
    1GR    C417  417   2.978   1.474   1.900  0.0000  0.0000  0.0000
    1GR    C418  418   3.120   1.474   1.900  0.0000  0.0000  0.0000
    1GR    C419  419   3.191   1.596   1.900  0.0000  0.0000  0.0000
    1GR    C420  420   3.332   1.596   1.900  0.0000  0.0000  0.0000
    1GR    C421  421   2.978   1.719   1.900  0.0000  0.0000  0.0000
    1GR    C422  422   3.120   1.719   1.900  0.0000  0.0000  0.0000
    1GR    C423  423   3.191   1.842   1.900  0.0000  0.0000  0.0000
    1GR    C424  424   3.332   1.842   1.900  0.0000  0.0000  0.0000
    1GR    C425  425   2.978   1.965   1.900  0.0000  0.0000  0.0000
    1GR    C426  426   3.120   1.965   1.900  0.0000  0.0000  0.0000
    1GR    C427  427   3.191   2.088   1.900  0.0000  0.0000  0.0000
    1GR    C428  428   3.332   2.088   1.900  0.0000  0.0000  0.0000
    1GR    C429  429   2.978   2.210   1.900  0.0000  0.0000  0.0000
    1GR    C430  430   3.120   2.210   1.900  0.0000  0.0000  0.0000
    1GR    C431  431   3.191   2.333   1.900  0.0000  0.0000  0.0000
    1GR    C432  432   3.332   2.333   1.900  0.0000  0.0000  0.0000
    1GR    C433  433   2.978   2.456   1.900  0.0000  0.0000  0.0000
    1GR    C434  434   3.120   2.456   1.900  0.0000  0.0000  0.0000
    1GR    C435  435   3.191   2.579   1.900  0.0000  0.0000  0.0000
    1GR    C436  436   3.332   2.579   1.900  0.0000  0.0000  0.0000
    1GR    C437  437   2.978   2.702   1.900  0.0000  0.0000  0.0000
    1GR    C438  438   3.120   2.702   1.900  0.0000  0.0000  0.0000
    1GR    C439  439   3.191   2.824   1.900  0.0000  0.0000  0.0000
    1GR    C440  440   3.332   2.824   1.900  0.0000  0.0000  0.0000
    1GR    C441  441   2.978   2.947   1.900  0.0000  0.0000  0.0000
    1GR    C442  442   3.120   2.947   1.900  0.0000  0.0000  0.0000
    1GR    C443  443   3.191   3.070   1.900  0.0000  0.0000  0.0000
    1GR    C444  444   3.332   3.070   1.900  0.0000  0.0000  0.0000
    1GR    C445  445   2.978   3.193   1.900  0.0000  0.0000  0.0000
    1GR    C446  446   3.120   3.193   1.900  0.0000  0.0000  0.0000
    1GR    C447  447   3.191   3.316   1.900  0.0000  0.0000  0.0000
    1GR    C448  448   3.332   3.316   1.900  0.0000  0.0000  0.0000
    2PMMA   CX1  449   1.970   1.668   2.413 -0.3507  0.0469 -0.0560
    2PMMA   CA2  450   2.125   1.685   2.407  0.2473 -0.3215 -0.1779
    2PMMA   CX3  451   2.166   1.687   2.260 -0.5394 -0.0623  0.2799
    2PMMA    C4  452   2.132   1.828   2.474 -0.2932 -0.0054 -0.5769
    2PMMA    O5  453   2.132   1.846   2.592 -0.1422 -0.5315 -0.0414
    2PMMA   OS6  454   2.190   1.916   2.394  0.0628 -0.4221 -0.1627
    2PMMA   CE7  455   2.234   2.040   2.444  0.0957 -0.7328  0.2659
    2PMMA   CX8  456   2.193   1.575   2.498  0.0311 -0.4365  0.1489
    2PMMA   CA9  457   2.349   1.561   2.514 -0.2253 -0.0626  0.1781
    2PMMA  CX10  458   2.396   1.477   2.387  0.1744 -0.2592  0.0320
    2PMMA   C11  459   2.363   1.469   2.632 -0.2090  0.0544 -0.4459
    2PMMA   O12  460   2.392   1.350   2.620  0.2979  0.5769  0.0508
    2PMMA  OS13  461   2.352   1.530   2.749 -0.7808  0.3679 -0.2230
    2PMMA  CE14  462   2.372   1.455   2.875  0.5255  0.4390  0.5190
    2PMMA  CX15  463   2.425   1.695   2.527  0.3086 -0.4396  0.4436
    2PMMA  CA16  464   2.586   1.713   2.536  0.1478 -0.0018  0.1710
    2PMMA  CX17  465   2.606   1.868   2.544  0.6116 -0.0402  0.2375
    2PMMA   C18  466   2.634   1.652   2.667  0.0906  0.3394 -0.6901
    2PMMA   O19  467   2.685   1.717   2.756 -0.1659 -0.3316  0.2318
    2PMMA  OS20  468   2.667   1.524   2.646 -0.0645 -0.1011 -0.3318
    2PMMA  CE21  469   2.764   1.460   2.733 -0.5593  0.2036 -0.3763
    2PMMA  CX22  470   2.664   1.670   2.405  0.0595  0.2001 -0.0100
    2PMMA  CA23  471   2.799   1.733   2.355  0.1955 -0.2108 -0.5078
    2PMMA  CX24  472   2.909   1.725   2.465  0.5271  0.2529 -0.3396
    2PMMA   C25  473   2.789   1.872   2.285  0.2096 -0.3104 -0.6349
    2PMMA   O26  474   2.689   1.911   2.229  0.2299  0.3972 -0.5214
    2PMMA  OS27  475   2.883   1.957   2.328  0.1876  0.3903  0.0206
    2PMMA  CE28  476   2.888   2.089   2.270 -0.7242 -0.8259 -0.2912
    2PMMA  CX29  477   2.860   1.644   2.242  0.0139  0.0590 -0.3437
    2PMMA  HC30  478   1.928   1.701   2.509  1.8211  3.6513 -0.2867
    2PMMA  HC31  479   1.915   1.727   2.339  0.1237  0.6205  0.0506
    2PMMA  HC32  480   1.941   1.563   2.400  1.5016 -0.3704 -0.9251
    2PMMA  HC33  481   2.273   1.691   2.238 -0.5517 -1.1078  0.0255
    2PMMA  HC34  482   2.123   1.773   2.208 -0.6175 -0.2383  0.0556
    2PMMA  HC35  483   2.133   1.589   2.223 -1.5619 -1.2564  4.1021
    2PMMA  H136  484   2.330   2.026   2.495 -0.4842  1.6869  2.1227
    2PMMA  H137  485   2.163   2.080   2.517 -1.2049 -0.0451 -1.3375
    2PMMA  H138  486   2.249   2.112   2.363 -1.9358  1.1359  1.5000
    2PMMA  HC39  487   2.142   1.587   2.594  0.1637  0.3884  0.1175
    2PMMA  HC40  488   2.149   1.484   2.454 -0.9789 -0.3287  0.9064
    2PMMA  HC41  489   2.336   1.386   2.378 -0.2015 -0.2113  1.8845
    2PMMA  HC42  490   2.404   1.533   2.294 -0.0417  0.3645  0.3847
    2PMMA  HC43  491   2.492   1.428   2.406 -0.5547 -1.3791  0.8804
    2PMMA  H144  492   2.477   1.449   2.905  0.3009 -0.1030  1.2025
    2PMMA  H145  493   2.342   1.351   2.862  0.3959  0.6670 -1.0574
    2PMMA  H146  494   2.327   1.504   2.962 -0.4684 -0.9111  0.7752
    2PMMA  HC47  495   2.404   1.745   2.432  0.4917 -1.1339  0.0386
    2PMMA  HC48  496   2.379   1.749   2.611  0.9930  0.2333  0.3905
    2PMMA  HC49  497   2.564   1.913   2.453  1.1726 -0.4643 -0.2385
    2PMMA  HC50  498   2.712   1.895   2.547  0.6168  0.0381 -0.4755
    2PMMA  HC51  499   2.550   1.919   2.623  2.0875 -1.0339  1.9543
    2PMMA  H152  500   2.759   1.353   2.711 -0.6544  0.2093 -0.3827
    2PMMA  H153  501   2.728   1.474   2.835 -1.8935  0.3839 -0.8581
    2PMMA  H154  502   2.866   1.497   2.718 -0.0610 -0.3528  1.5433
    2PMMA  HC55  503   2.681   1.562   2.411 -2.3061 -0.1619  1.0283
    2PMMA  HC56  504   2.599   1.659   2.318  0.6531 -1.6725 -0.2401
    2PMMA  HC57  505   3.005   1.749   2.418  0.0965  2.3944 -0.1780
    2PMMA  HC58  506   2.886   1.795   2.546  2.4710  0.4777  0.0582
    2PMMA  HC59  507   2.938   1.629   2.510  1.0523 -0.1463 -1.5270
    2PMMA  H160  508   2.827   2.116   2.183  1.1002  2.3932 -0.6543
    2PMMA  H161  509   2.991   2.118   2.247 -0.2821 -3.0662 -1.2748
    2PMMA  H162  510   2.856   2.154   2.352  1.2419  1.3893 -1.2277
    2PMMA  HC63  511   2.873   1.542   2.278  2.0793  0.5516  0.4019
    2PMMA  HC64  512   2.783   1.632   2.166  0.6982 -0.1873 -1.0089
    2PMMA  HC65  513   2.953   1.677   2.194  0.2065 -0.2545 -0.1865
    3THF     C1  514   1.576   1.021   1.412 -0.8925 -0.5424 -0.5166
    3THF     C2  515   1.485   0.897   1.378  1.3642  0.3547  0.2482
    3THF     C3  516   1.346   0.940   1.434  0.2214 -0.4471  0.1835
    3THF     O1  517   1.373   1.039   1.540 -0.5408  0.3065 -0.3276
    3THF     C4  518   1.523   1.065   1.551  0.5858  0.3123 -0.4197
    3THF     H1  519   1.684   1.007   1.409 -0.6947  0.8259 -0.1481
    3THF     H2  520   1.562   1.094   1.331 -0.2287 -0.3216 -0.4376
    3THF     H3  521   1.519   0.810   1.435 -0.2075 -1.1095 -0.9753
    3THF     H4  522   1.485   0.874   1.270  2.2188  0.3304  0.2466
    3THF     H5  523   1.276   0.983   1.361  0.6877  0.6936  0.4129
    3THF     H6  524   1.287   0.853   1.469 -0.1090  0.2750  1.4387
    3THF     H7  525   1.545   1.168   1.580 -1.1462  0.4408  0.4581
    3THF     H8  526   1.559   1.003   1.634  0.1703  3.1695  1.9679
    4THF     C1  527   2.003   1.838   1.452 -0.5086 -0.6177  0.5096
    4THF     C2  528   1.902   1.842   1.321 -0.3528 -0.0576 -0.1291
    4THF     C3  529   1.839   1.982   1.326  0.1321 -0.2445 -0.3631
    4THF     O1  530   1.879   2.027   1.456 -0.0161  0.1578 -0.2640
    4THF     C4  531   1.903   1.920   1.540 -0.3065  0.6394  0.2924
    4THF     H1  532   2.035   1.738   1.483 -0.9503 -0.4395  1.5739
    4THF     H2  533   2.094   1.898   1.434 -0.0863 -1.5940 -0.6821
    4THF     H3  534   1.829   1.760   1.327  0.8406 -1.2283 -1.2320
    4THF     H4  535   1.962   1.835   1.229 -0.5550  1.2230 -0.3648
    4THF     H5  536   1.874   2.043   1.242 -2.1999  1.4113 -0.1702
    4THF     H6  537   1.731   1.967   1.310 -0.1364  0.0154  1.1282
    4THF     H7  538   1.949   1.953   1.634  1.2700 -2.5926  0.7427
    4THF     H8  539   1.812   1.861   1.559  0.7527 -0.9826  0.4573
    5THF     C1  540   0.006   0.023   0.342  0.2731 -0.4174  0.1147
    5THF     C2  541   0.076   0.089   0.462 -0.2307  0.5071 -1.0401
    5THF     C3  542   0.123   0.225   0.400  1.0006  0.2435 -0.3688
    5THF     O1  543   0.107   0.211   0.263 -0.4291  0.4860 -0.1228
    5THF     C4  544  -0.007   0.136   0.237 -0.0379  0.0708  0.0289
    5THF     H1  545   0.068  -0.058   0.303 -0.8224 -1.0002 -0.4609
    5THF     H2  546  -0.094  -0.013   0.370 -0.0015  0.4720  0.2771
    5THF     H3  547   0.160   0.032   0.502 -0.5597 -0.1737 -1.3105
    5THF     H4  548   0.009   0.113   0.546  0.6641  0.4375 -0.2944
    5THF     H5  549   0.058   0.306   0.434  0.0666 -0.7456  0.2453
    5THF     H6  550   0.226   0.249   0.432  0.8469  1.6413 -0.8829
    5THF     H7  551  -0.092   0.200   0.264  1.0570  0.9993  1.3414
    5THF     H8  552  -0.013   0.100   0.134 -0.9125 -0.0792  0.1288
    6THF     C1  553   2.020   0.261   1.557 -0.2868 -0.5167 -0.2072
    6THF     C2  554   2.051   0.233   1.406 -0.5959  0.1482 -0.2727
    6THF     C3  555   1.936   0.287   1.331 -0.2340 -0.0117  0.7968
    6THF     O1  556   1.824   0.251   1.415  0.1822 -0.1540 -0.1360
    6THF     C4  557   1.872   0.299   1.546 -0.4373  0.4935 -0.3970
    6THF     H1  558   2.032   0.164   1.607 -1.8561 -1.1973 -1.1018
    6THF     H2  559   2.081   0.341   1.599 -0.6706 -0.2655 -0.1308
    6THF     H3  560   2.072   0.127   1.387 -0.6295 -0.2005  1.4805
    6THF     H4  561   2.137   0.294   1.376 -0.8761  0.4876 -0.3882
    6THF     H5  562   1.928   0.396   1.326  0.4667 -0.0593 -3.0579
    6THF     H6  563   1.933   0.256   1.225  0.8077  1.8221  0.2091
    6THF     H7  564   1.847   0.405   1.558 -1.6858  0.2213 -0.5638
    6THF     H8  565   1.809   0.241   1.614 -2.4662  1.0032 -1.7704
    7THF     C1  566   2.132   2.115   0.971 -0.1861  0.1044 -0.1900
    7THF     C2  567   2.026   2.037   0.880  0.2705 -0.2739  0.1631
    7THF     C3  568   2.078   1.890   0.896  0.0233  0.7431  0.3124
    7THF     O1  569   2.191   1.885   0.987  0.2214  0.3771  0.1841
    7THF     C4  570   2.173   1.998   1.073  0.3126 -0.3482 -0.5928
    7THF     H1  571   2.210   2.154   0.905  0.2436 -1.6430 -0.7418
    7THF     H2  572   2.096   2.199   1.031 -0.0547  0.2630 -0.3331
    7THF     H3  573   2.033   2.068   0.775  3.3122 -0.5618  0.2180
    7THF     H4  574   1.928   2.053   0.925  0.5488  0.1212  0.6351
    7THF     H5  575   1.992   1.835   0.938  0.1799 -0.3892 -0.8236
    7THF     H6  576   2.098   1.844   0.799 -0.1488  1.5698 -0.1195
    7THF     H7  577   2.091   1.976   1.143  0.3612 -1.5160 -0.8856
    7THF     H8  578   2.268   2.021   1.121  0.1136  1.0376 -0.8547
    8THF     C1  579   2.834   3.421   0.381 -0.1855 -0.0569  0.2387
    8THF     C2  580   2.978   3.472   0.335  0.1508  0.3563 -0.2575
    8THF     C3  581   3.068   3.412   0.447 -0.4182 -0.6317 -0.5430
    8THF     O1  582   2.980   3.354   0.539 -0.0189 -0.6668 -0.4990
    8THF     C4  583   2.862   3.428   0.527  0.1460  0.5802 -0.2436
    8THF     H1  584   2.746   3.473   0.342 -0.3118 -1.0986 -0.8873
    8THF     H2  585   2.829   3.318   0.346 -2.1001  0.0193  0.2436
    8THF     H3  586   2.969   3.581   0.329 -0.6626  0.2050 -2.4003
    8THF     H4  587   3.004   3.427   0.239  0.7976  0.0463  0.0636
    8THF     H5  588   3.131   3.330   0.409 -0.5231 -1.0157  0.0926
    8THF     H6  589   3.131   3.489   0.493 -0.4414 -1.0700  0.2409
    8THF     H7  590   2.785   3.385   0.593  0.6468  2.6148  1.7170
    8THF     H8  591   2.878   3.526   0.574 -0.9154  1.1231 -0.9852
    9THF     C1  592   3.131   2.409   0.811  1.1001  0.0354  0.1735
    9THF     C2  593   3.259   2.338   0.759  0.0148 -0.4578 -0.3499
    9THF     C3  594   3.212   2.224   0.664  0.8740 -0.0214 -0.8625
    9THF     O1  595   3.084   2.282   0.622  0.1329 -0.0327 -0.4332
    9THF     C4  596   3.018   2.335   0.745  0.8032  0.9851  0.0043
    9THF     H1  597   3.113   2.404   0.919 -0.7966  1.9258 -0.0215
    9THF     H2  598   3.129   2.515   0.785  0.6252  0.0984  0.4633
    9THF     H3  599   3.324   2.291   0.834  0.7932  0.2128 -0.5900
    9THF     H4  600   3.332   2.396   0.701 -0.4415  0.1112 -0.3574
    9THF     H5  601   3.263   2.198   0.571 -1.2203 -1.6943 -1.5988
    9THF     H6  602   3.199   2.128   0.717  2.9143  0.1387 -0.0301
    9THF     H7  603   2.935   2.403   0.723 -1.3376 -1.8930 -1.1149
    9THF     H8  604   2.990   2.242   0.795  1.1518  1.4817  1.1549
   10THF     C1  605   2.475   3.359   0.607 -0.3276  0.5001 -0.0718
   10THF     C2  606   2.524   3.400   0.747 -0.6665 -0.0735 -0.3346
   10THF     C3  607   2.485   3.548   0.756 -0.2670  0.0767 -0.3285
   10THF     O1  608   2.405   3.585   0.645  0.6741 -0.2912 -0.2793
   10THF     C4  609   2.430   3.489   0.544  0.4644  1.1234 -1.1864
   10THF     H1  610   2.544   3.316   0.533  0.1438  0.0991  0.6003
   10THF     H2  611   2.393   3.286   0.613  0.6918 -0.8279 -1.7827
   10THF     H3  612   2.631   3.384   0.762 -1.6368 -2.0263  6.8295
   10THF     H4  613   2.474   3.346   0.828  3.3679 -1.6622  1.2106
   10THF     H5  614   2.438   3.564   0.854  1.7882 -2.3407  1.1110
   10THF     H6  615   2.574   3.610   0.740 -1.7991  2.0987 -1.2333
   10THF     H7  616   2.336   3.479   0.489  0.7191 -0.6415 -1.3316
   10THF     H8  617   2.507   3.533   0.479  1.0511  1.7007 -0.1267
   11THF     C1  618   2.859   3.222   3.450 -0.1157 -0.5438  0.3963
   11THF     C2  619   2.862   3.083   3.521  0.6091 -0.2905  0.3196
   11THF     C3  620   2.916   2.987   3.415  1.1121  0.1239 -0.2432
   11THF     O1  621   2.957   3.069   3.310 -0.4658 -0.8117 -0.0536
   11THF     C4  622   2.984   3.201   3.358 -0.6671  0.0391  0.1490
   11THF     H1  623   2.771   3.246   3.390  0.9640  0.5521 -0.7819
   11THF     H2  624   2.870   3.312   3.511  0.0524  0.3683 -0.9387
   11THF     H3  625   2.758   3.061   3.546  0.4177 -0.4562 -0.6358
   11THF     H4  626   2.916   3.083   3.617 -0.6406  2.2064  1.0608
   11THF     H5  627   2.999   2.929   3.458 -0.1055 -0.4600  1.3611
   11THF     H6  628   2.837   2.923   3.373  3.9762 -1.9263 -2.7235
   11THF     H7  629   3.086   3.208   3.398  0.6448 -0.8120 -2.8329
   11THF     H8  630   2.975   3.268   3.272 -0.8165 -0.3467 -0.1411
   12THF     C1  631   0.072   3.136   3.106  0.0829  0.4861 -0.3734
   12THF     C2  632  -0.009   3.007   3.143  0.5448 -0.3557  0.2459
   12THF     C3  633  -0.158   3.051   3.158 -0.2867  0.0276 -0.7245
   12THF     O1  634  -0.159   3.180   3.105 -0.4746 -0.4125 -0.4435
   12THF     C4  635  -0.035   3.251   3.132  0.4104 -0.1152 -0.2016
   12THF     H1  636   0.163   3.141   3.166  0.9271 -1.6984 -1.4118
   12THF     H2  637   0.091   3.130   2.999 -2.5212  2.6579 -1.0211
   12THF     H3  638   0.035   2.959   3.232 -1.0603 -1.7464  0.3151
   12THF     H4  639   0.003   2.929   3.067  0.1386  0.8417 -1.0400
   12THF     H5  640  -0.233   2.995   3.101 -0.0041 -1.5092  0.3872
   12THF     H6  641  -0.185   3.056   3.264  2.2292  0.0092 -0.0606
   12THF     H7  642  -0.021   3.331   3.058 -0.0788  0.5111  0.3798
   12THF     H8  643  -0.036   3.289   3.234 -0.0627 -0.0086 -0.2434
   13THF     C1  644   0.318   1.962   0.268 -0.0277 -0.3274  0.0304
   13THF     C2  645   0.210   1.984   0.385  0.4890 -0.4868 -0.3391
   13THF     C3  646   0.099   2.073   0.318 -0.4486 -0.0653  0.2303
   13THF     O1  647   0.181   2.166   0.249 -0.0122  0.6245  0.1119
   13THF     C4  648   0.302   2.103   0.195 -0.4892  0.9456  0.7042
   13THF     H1  649   0.417   1.941   0.308  0.6654 -1.5663 -2.2490
   13THF     H2  650   0.294   1.886   0.192  1.5120  0.2610 -1.0525
   13THF     H3  651   0.256   2.040   0.467 -4.2840  0.6859  1.7504
   13THF     H4  652   0.173   1.888   0.425 -0.0925 -0.8778 -1.7863
   13THF     H5  653   0.037   2.012   0.252  0.3611 -1.3558  0.6449
   13THF     H6  654   0.055   2.118   0.407 -2.1389 -0.8878 -0.1807
   13THF     H7  655   0.296   2.085   0.087 -0.7917  1.3128  0.6596
   13THF     H8  656   0.388   2.167   0.220 -0.2601  0.4606  1.1720
   14THF     C1  657   2.619   1.718   3.733 -0.4108 -0.1246  0.5092
   14THF     C2  658   2.579   1.601   3.632  0.8212 -0.5030 -0.3323
   14THF     C3  659   2.682   1.609   3.521  0.4167  0.1440  0.8881
   14THF     O1  660   2.755   1.729   3.541  0.0928 -0.2397 -0.2425
   14THF     C4  661   2.762   1.740   3.688  0.6679  0.0270 -0.1502
   14THF     H1  662   2.555   1.807   3.729 -1.7164 -1.1297 -2.0051
   14THF     H2  663   2.614   1.682   3.836  1.5010  1.4828  1.2052
   14THF     H3  664   2.478   1.599   3.591  1.0403 -0.3854 -0.8828
   14THF     H4  665   2.581   1.505   3.684  0.7021 -1.0693 -1.3610
   14THF     H5  666   2.748   1.521   3.530 -1.5466 -1.6121 -1.0183
   14THF     H6  667   2.631   1.609   3.424 -1.4184 -0.7312  1.8334
   14THF     H7  668   2.829   1.663   3.730  3.1478  2.0010 -0.3916
   14THF     H8  669   2.816   1.828   3.724 -0.4342  1.6209 -2.2929
   15THF     C1  670   3.172   2.613   1.541 -0.1438  0.1103  0.2926
   15THF     C2  671   3.245   2.757   1.544  0.3734  0.9743  0.4905
   15THF     C3  672   3.126   2.841   1.506  0.8543  0.0189  0.5269
   15THF     O1  673   3.012   2.786   1.570  0.4020 -0.2383  0.3377
   15THF     C4  674   3.020   2.641   1.560  0.0795  0.5251  0.5766
   15THF     H1  675   3.184   2.576   1.439 -0.2864  0.3180  0.2020
   15THF     H2  676   3.207   2.533   1.607 -2.4949  1.0014  2.7005
   15THF     H3  677   3.329   2.769   1.475  0.3216  0.1297  0.2793
   15THF     H4  678   3.271   2.782   1.648 -0.0544  3.3290  0.0500
   15THF     H5  679   3.139   2.948   1.522  1.2989  0.2918 -1.5319
   15THF     H6  680   3.111   2.825   1.398  1.1124  2.1162  0.1709
   15THF     H7  681   2.988   2.598   1.656  0.4756 -0.2228  0.3810
   15THF     H8  682   2.949   2.611   1.481 -0.3557 -1.2898  1.6261
   16THF     C1  683   2.819   1.371   0.990 -0.2965 -0.2561 -0.1008
   16THF     C2  684   2.748   1.437   0.875 -0.9147 -0.2889  0.3467
   16THF     C3  685   2.874   1.471   0.785  0.0223  0.2898 -0.8346
   16THF     O1  686   2.964   1.352   0.795  0.1786 -0.0961  0.0843
   16THF     C4  687   2.944   1.301   0.929 -0.4340 -0.0300 -0.0987
   16THF     H1  688   2.846   1.449   1.062 -3.3127  2.8590 -2.1621
   16THF     H2  689   2.749   1.305   1.043 -0.7010 -0.1140 -0.4611
   16THF     H3  690   2.696   1.532   0.892 -1.9346 -0.8505  0.4276
   16THF     H4  691   2.681   1.371   0.818  2.2457 -2.0827 -1.4277
   16THF     H5  692   2.845   1.495   0.682 -0.3548 -0.1652 -0.8392
   16THF     H6  693   2.929   1.562   0.812 -2.7064  1.2216  1.8658
   16THF     H7  694   2.921   1.194   0.925 -0.7498 -0.0590  1.8889
   16THF     H8  695   3.030   1.326   0.992  0.7748 -3.1184 -0.4259
   17THF     C1  696   2.359   1.355   1.202  0.4175  0.3977  0.7748
   17THF     C2  697   2.394   1.449   1.079  0.3015 -0.2156 -0.3199
   17THF     C3  698   2.337   1.592   1.134  0.2263 -0.0803 -0.3878
   17THF     O1  699   2.274   1.563   1.259  0.2480 -0.3812  0.7515
   17THF     C4  700   2.351   1.456   1.310  0.3908 -0.4102  0.0513
   17THF     H1  701   2.262   1.307   1.182 -0.1298  0.9153  2.0980
   17THF     H2  702   2.432   1.276   1.217  1.0046  0.5041 -1.4419
   17THF     H3  703   2.351   1.408   0.987 -1.2024  0.7137 -0.0521
   17THF     H4  704   2.504   1.451   1.072  0.3873  0.8426  1.1560
   17THF     H5  705   2.419   1.664   1.149 -0.5944  0.7401  0.2568
   17THF     H6  706   2.265   1.637   1.064 -2.4632  2.8510  4.0173
   17THF     H7  707   2.443   1.503   1.346  0.0944  0.2667 -0.0689
   17THF     H8  708   2.304   1.406   1.397  2.0368  3.7262  3.4769
   18THF     C1  709   2.160   2.390   1.411  0.4552 -0.0938 -0.0724
   18THF     C2  710   2.203   2.474   1.527 -0.4455  0.3512 -0.7270
   18THF     C3  711   2.330   2.382   1.576  0.1655 -0.2827 -0.0825
   18THF     O1  712   2.400   2.358   1.447  0.9276 -0.2535  0.0918
   18THF     C4  713   2.294   2.347   1.346  0.6792  0.3772 -0.6071
   18THF     H1  714   2.101   2.304   1.446 -1.7295  1.0198 -0.9371
   18THF     H2  715   2.088   2.442   1.347  0.7920  2.0699  1.2527
   18THF     H3  716   2.118   2.482   1.595 -1.7849 -3.5539 -1.7893
   18THF     H4  717   2.238   2.573   1.496 -0.0453  0.0590 -1.2262
   18THF     H5  718   2.390   2.440   1.647  0.5259 -0.0998 -0.5340
   18THF     H6  719   2.292   2.292   1.626  0.1073 -0.1130  0.1782
   18THF     H7  720   2.322   2.420   1.270  0.0109  1.7263  0.4088
   18THF     H8  721   2.290   2.249   1.298 -0.2227  0.1608 -0.0977
   19THF     C1  722   0.864   2.117   0.141 -0.0185  0.5213 -0.1933
   19THF     C2  723   0.838   1.975   0.180 -1.0787  0.7240  0.1286
   19THF     C3  724   0.751   1.936   0.061  0.6375 -0.4780 -0.3051
   19THF     O1  725   0.824   1.986  -0.050  0.8134  0.1960 -0.3574
   19THF     C4  726   0.905   2.094  -0.010 -0.0425  0.3823 -0.1751
   19THF     H1  727   0.772   2.174   0.155 -0.4202 -0.1437 -0.0794
   19THF     H2  728   0.942   2.175   0.191  0.2585  0.4659 -0.5579
   19THF     H3  729   0.792   1.959   0.278  1.3042 -2.8911  0.7480
   19THF     H4  730   0.928   1.912   0.179 -1.5271  0.0469 -1.9686
   19THF     H5  731   0.733   1.828   0.052 -1.3792 -0.0400 -1.7342
   19THF     H6  732   0.653   1.984   0.068  0.7569 -0.2192 -0.4025
   19THF     H7  733   1.007   2.054  -0.022 -0.7657 -1.0334 -2.0364
   19THF     H8  734   0.909   2.178  -0.080 -0.3597  1.6855  1.3490
   20THF     C1  735   0.077   1.822   1.539 -0.0242 -0.3664 -0.3341
   20THF     C2  736   0.071   1.866   1.392 -0.2415 -0.6167  0.1767
   20THF     C3  737   0.152   1.754   1.339  0.3538  0.6831  0.4877
   20THF     O1  738   0.258   1.724   1.433 -0.5962 -1.3796 -0.5947
   20THF     C4  739   0.217   1.761   1.564  0.2849  0.1529  0.7862
   20THF     H1  740   0.038   1.899   1.607 -0.2315  0.0987 -0.9785
   20THF     H2  741  -0.001   1.746   1.550  1.5441 -1.5780  3.0299
   20THF     H3  742   0.127   1.960   1.387 -0.0666 -0.6078  1.8103
   20THF     H4  743  -0.026   1.867   1.341 -0.2805 -1.3843  0.2366
   20THF     H5  744   0.081   1.669   1.341 -1.5938  2.2492 -0.1012
   20THF     H6  745   0.198   1.773   1.241  1.5059 -0.5218  0.7908
   20THF     H7  746   0.201   1.675   1.630 -2.2661 -0.3513 -0.4043
   20THF     H8  747   0.284   1.834   1.610  0.5803  1.5782 -1.8005
   21THF     C1  748   0.962   0.281   0.411 -0.4192  0.4651 -0.1267
   21THF     C2  749   1.062   0.259   0.524  0.7022 -0.0674 -0.2120
   21THF     C3  750   0.980   0.190   0.640  0.1487  0.2716 -0.8398
   21THF     O1  751   0.864   0.269   0.627 -0.0250  0.1555 -0.0851
   21THF     C4  752   0.829   0.277   0.485 -0.5373 -0.7520  0.1314
   21THF     H1  753   0.974   0.368   0.345 -0.3110  0.6661  0.1590
   21THF     H2  754   0.970   0.194   0.344 -1.7252  0.9092 -0.8798
   21THF     H3  755   1.114   0.349   0.558  0.9319 -0.3152  0.0998
   21THF     H4  756   1.145   0.196   0.488  0.1672 -0.8684 -0.0593
   21THF     H5  757   0.976   0.081   0.626 -2.2752  0.1688  0.3832
   21THF     H6  758   1.016   0.205   0.743  0.7484  2.9898 -1.4200
   21THF     H7  759   0.765   0.190   0.467 -3.4082  0.9287  1.7949
   21THF     H8  760   0.762   0.364   0.484  0.4466  0.0074 -0.4380
   22THF     C1  761   2.213   3.049   0.350 -0.3258 -0.6097 -0.5568
   22THF     C2  762   2.094   3.127   0.396  0.0953  0.3703 -0.2942
   22THF     C3  763   2.120   3.272   0.328  0.1047  0.3424  0.0525
   22THF     O1  764   2.257   3.274   0.349 -0.0074 -0.2258  0.5252
   22THF     C4  765   2.307   3.153   0.297 -0.4009 -0.3044  0.2721
   22THF     H1  766   2.253   3.001   0.440 -0.6556 -0.3364 -0.2598
   22THF     H2  767   2.196   2.974   0.272 -1.1166 -1.4054  0.3649
   22THF     H3  768   2.093   3.145   0.504 -2.8372  3.6229 -0.7617
   22THF     H4  769   2.002   3.088   0.351  0.7893  0.2026 -1.6192
   22THF     H5  770   2.102   3.278   0.220  0.1735  3.2871  0.1763
   22THF     H6  771   2.075   3.358   0.379 -1.1544 -0.4232  0.2733
   22THF     H7  772   2.302   3.159   0.188 -4.5247 -0.5165  0.3445
   22THF     H8  773   2.407   3.148   0.342 -0.0624 -0.2895 -0.4724
   23THF     C1  774   1.395   1.105   0.378 -0.7619 -0.8412 -0.0319
   23THF     C2  775   1.551   1.091   0.359 -0.6318  0.0181 -0.6068
   23THF     C3  776   1.577   1.230   0.303  0.2632  0.0637  0.0830
   23THF     O1  777   1.467   1.241   0.210 -0.0122 -0.3509  0.2890
   23THF     C4  778   1.344   1.181   0.255 -0.0149  0.0131 -0.4985
   23THF     H1  779   1.348   1.006   0.384  1.0287 -1.6708  0.4853
   23THF     H2  780   1.376   1.155   0.473  0.2756 -1.1473  0.3421
   23THF     H3  781   1.571   1.005   0.294 -0.1732 -0.8878  0.6981
   23THF     H4  782   1.590   1.075   0.460  0.3072  0.7992 -0.8451
   23THF     H5  783   1.576   1.311   0.377 -0.8505 -0.4076  0.5989
   23THF     H6  784   1.672   1.234   0.248  0.5482  1.9382  0.6616
   23THF     H7  785   1.265   1.254   0.280 -2.2421 -1.6479 -2.4296
   23THF     H8  786   1.309   1.109   0.180  2.1573 -1.3714 -0.2148
   24THF     C1  787   0.237   1.327   1.055 -0.2967  0.5859  0.4339
   24THF     C2  788   0.319   1.449   0.996 -0.6518 -0.0749  0.0756
   24THF     C3  789   0.458   1.390   0.957  0.3428 -0.6972 -0.5859
   24THF     O1  790   0.466   1.267   1.021  0.3477 -0.1957  0.1370
   24THF     C4  791   0.328   1.205   1.020 -0.1247 -0.0446  0.6116
   24THF     H1  792   0.238   1.327   1.165  2.2561 -1.1430  0.4443
   24THF     H2  793   0.135   1.315   1.019  0.1943 -1.2164 -0.3675
   24THF     H3  794   0.340   1.528   1.068 -3.2568  0.5409  0.2020
   24THF     H4  795   0.272   1.494   0.908 -0.9078 -1.9543 -0.7826
   24THF     H5  796   0.486   1.385   0.851 -1.4373 -2.2254 -1.0068
   24THF     H6  797   0.542   1.451   0.993 -0.4970  0.3455 -0.3553
   24THF     H7  798   0.307   1.152   0.926 -2.6173  0.8456  0.6355
   24THF     H8  799   0.332   1.137   1.106 -0.3190 -0.7154  0.0912
   25THF     C1  800   0.113   2.263   3.752 -0.1113  0.0911  0.3169
   25THF     C2  801   0.100   2.138   3.659 -0.2711 -0.0078 -0.5236
   25THF     C3  802   0.073   2.203   3.515 -0.2423 -0.5952 -0.8951
   25THF     O1  803   0.074   2.340   3.539  0.3359 -0.4185 -0.0270
   25THF     C4  804   0.033   2.361   3.671  0.7334  0.1899 -0.5086
   25THF     H1  805   0.067   2.238   3.849 -0.8081  0.5936  0.1175
   25THF     H2  806   0.213   2.304   3.767 -0.4956  1.3166 -0.4662
   25THF     H3  807   0.021   2.067   3.684  0.8833 -1.1921 -0.2134
   25THF     H4  808   0.194   2.082   3.656  0.9107  1.8656 -0.0669
   25THF     H5  809   0.148   2.173   3.441  1.8789  0.9961  0.5479
   25THF     H6  810  -0.027   2.180   3.476 -0.9804  1.7286 -0.4946
   25THF     H7  811   0.047   2.466   3.701  0.6854 -0.2530  1.1191
   25THF     H8  812  -0.075   2.341   3.677  0.7594  0.5033  1.5125
   26THF     C1  813   1.025   1.736   1.550 -0.7087  0.2314  0.1989
   26THF     C2  814   1.048   1.886   1.575  0.3538 -0.4612 -0.1327
   26THF     C3  815   1.039   1.946   1.429  0.4523  0.6092 -0.1121
   26THF     O1  816   0.990   1.842   1.348 -0.7559 -0.1135 -0.3492
   26THF     C4  817   1.051   1.722   1.399 -0.0668  0.0367 -0.2289
   26THF     H1  818   1.087   1.672   1.614  0.8197 -0.3553 -1.8288
   26THF     H2  819   0.917   1.719   1.552 -0.6445 -0.2440 -0.3100
   26THF     H3  820   1.144   1.903   1.624  1.0534 -0.3983 -1.4948
   26THF     H4  821   0.965   1.926   1.635  0.9404 -1.0079  1.0608
   26THF     H5  822   0.969   2.030   1.425 -1.1107 -0.5447  1.9056
   26THF     H6  823   1.130   1.977   1.378  0.9998  1.2389  1.2242
   26THF     H7  824   1.003   1.642   1.341 -1.7047  1.5943 -1.0830
   26THF     H8  825   1.157   1.715   1.369 -0.5061  0.2842 -1.8675
   27THF     C1  826   2.278   1.036   1.452  0.5618 -0.2247 -0.1430
   27THF     C2  827   2.384   0.935   1.494  0.4116 -1.4557  0.6418
   27THF     C3  828   2.487   1.033   1.552  0.1945 -0.1848 -0.0597
   27THF     O1  829   2.415   1.148   1.598  0.0772 -0.2369  0.3766
   27THF     C4  830   2.281   1.144   1.561  0.4622 -0.4472  0.6671
   27THF     H1  831   2.293   1.073   1.349 -0.9736  0.6393 -0.0789
   27THF     H2  832   2.178   0.993   1.440  0.9708 -0.9451 -1.0437
   27THF     H3  833   2.429   0.866   1.421 -0.4677 -0.9611 -0.3861
   27THF     H4  834   2.348   0.870   1.574 -0.4534  0.4301  1.8304
   27THF     H5  835   2.552   0.989   1.629 -0.9453 -1.7420  0.0443
   27THF     H6  836   2.557   1.057   1.471  0.3634  1.3093  0.5135
   27THF     H7  837   2.225   1.109   1.649 -1.4835  0.7940 -0.0666
   27THF     H8  838   2.249   1.246   1.536 -0.5884 -1.1537 -0.9350
   28THF     C1  839   0.265   2.537   1.557 -0.2742 -0.0075 -0.2310
   28THF     C2  840   0.324   2.683   1.527 -0.0582  0.2636 -0.8136
   28THF     C3  841   0.204   2.749   1.467 -0.0356  1.1165 -0.1703
   28THF     O1  842   0.158   2.641   1.373  0.1880  0.3382  0.0072
   28THF     C4  843   0.171   2.517   1.439  0.3626  0.1633  0.2213
   28THF     H1  844   0.340   2.458   1.564 -0.3747 -0.0847 -0.0343
   28THF     H2  845   0.215   2.532   1.654  0.1129 -0.9518 -0.0720
   28THF     H3  846   0.404   2.682   1.452  0.8472  0.7540  0.1170
   28THF     H4  847   0.363   2.739   1.613  1.8883 -0.7420 -1.0125
   28THF     H5  848   0.124   2.766   1.540  0.0260  0.4817  0.0493
   28THF     H6  849   0.224   2.848   1.425 -1.1289  0.8962 -1.2401
   28THF     H7  850   0.071   2.485   1.471  0.7520 -1.5872 -0.2454
   28THF     H8  851   0.206   2.445   1.364 -0.3531 -0.0761  0.1170
   29THF     C1  852   2.471   2.747   1.374 -0.7769 -0.1787  0.3488
   29THF     C2  853   2.600   2.661   1.407 -0.1111 -0.2958 -0.5153
   29THF     C3  854   2.614   2.673   1.558  0.1183  0.2065 -0.0120
   29THF     O1  855   2.575   2.804   1.578  0.4184 -0.3955  0.5414
   29THF     C4  856   2.446   2.829   1.505 -0.3012 -0.4600  0.2116
   29THF     H1  857   2.483   2.813   1.288 -1.7192 -1.8567 -1.0741
   29THF     H2  858   2.377   2.692   1.362 -0.2766 -0.7691 -0.8625
   29THF     H3  859   2.690   2.695   1.356 -0.4056  0.0177 -0.8362
   29THF     H4  860   2.587   2.557   1.374 -0.5397 -0.5240  0.3670
   29THF     H5  861   2.547   2.611   1.619 -3.6654 -0.3551 -4.5155
   29THF     H6  862   2.715   2.658   1.597 -0.3634  1.2953  1.7241
   29THF     H7  863   2.364   2.798   1.571 -0.1830 -1.2302  0.0045
   29THF     H8  864   2.448   2.935   1.479  2.8110 -0.5709 -0.2200
   30THF     C1  865   3.284   0.152   0.862 -0.1055  0.3801 -0.3967
   30THF     C2  866   3.361   0.287   0.892  0.1274  0.7991  0.0102
   30THF     C3  867   3.368   0.300   1.047 -0.2477 -0.2441 -0.3148
   30THF     O1  868   3.342   0.170   1.094  0.3077 -0.0420 -0.6661
   30THF     C4  869   3.243   0.114   1.009 -0.1513  0.6448 -0.6671
   30THF     H1  870   3.201   0.161   0.790 -0.9486  0.7205  0.6104
   30THF     H2  871   3.347   0.071   0.824  0.4615  1.5291 -1.9949
   30THF     H3  872   3.319   0.379   0.849 -0.5579  0.6086  0.2591
   30THF     H4  873   3.462   0.282   0.851 -0.2233 -0.2254 -0.7409
   30THF     H5  874   3.459   0.344   1.091  0.5720 -2.0065 -0.2270
   30THF     H6  875   3.281   0.362   1.073  0.2216 -0.2110  1.2504
   30THF     H7  876   3.246   0.006   1.024 -1.1516  0.6746 -0.2289
   30THF     H8  877   3.143   0.154   1.031  0.3110  1.5508 -0.1761
   31THF     C1  878   1.316   1.357   1.423 -0.0299 -0.1654 -0.2866
   31THF     C2  879   1.169   1.307   1.415  0.1979  0.2229 -0.2076
   31THF     C3  880   1.119   1.336   1.558  0.4216  0.4642 -0.8657
   31THF     O1  881   1.204   1.446   1.601  0.0262  0.1751  0.1662
   31THF     C4  882   1.331   1.409   1.565 -0.2031  0.5519  0.2156
   31THF     H1  883   1.385   1.274   1.406  0.0677 -0.3355  0.8931
   31THF     H2  884   1.340   1.431   1.346 -1.0053 -0.0645 -0.4965
   31THF     H3  885   1.166   1.199   1.394  1.2132  0.0895  0.3025
   31THF     H4  886   1.118   1.356   1.332 -0.8522 -0.1091  0.2297
   31THF     H5  887   1.014   1.365   1.561  0.5864  1.1575 -1.6719
   31THF     H6  888   1.137   1.256   1.631 -2.0509  0.3894 -0.3154
   31THF     H7  889   1.400   1.493   1.580 -2.0004  1.9239  0.9147
   31THF     H8  890   1.374   1.328   1.625 -1.8539 -1.6814 -1.5446
   32THF     C1  891   1.765   2.336   1.522 -0.2912  0.2715 -1.3262
   32THF     C2  892   1.615   2.320   1.512  0.1705 -0.5184  0.0979
   32THF     C3  893   1.555   2.464   1.538  0.4608  0.3400 -0.1900
   32THF     O1  894   1.654   2.543   1.475  0.6768  0.1169 -0.0173
   32THF     C4  895   1.778   2.494   1.525 -0.2279 -0.0964  0.6317
   32THF     H1  896   1.799   2.289   1.615  0.3433  1.3207 -1.0268
   32THF     H2  897   1.821   2.290   1.439 -1.5218 -1.9691 -0.9667
   32THF     H3  898   1.572   2.243   1.576  1.8795 -0.6529  1.1158
   32THF     H4  899   1.590   2.287   1.411  0.1728  0.8789 -0.3770
   32THF     H5  900   1.460   2.476   1.484  0.8571  1.2852 -0.6990
   32THF     H6  901   1.554   2.500   1.641  2.1790  0.7762 -0.3119
   32THF     H7  902   1.859   2.533   1.462 -2.0020 -1.3167 -2.5316
   32THF     H8  903   1.787   2.531   1.628  0.7202 -0.0227  0.5314
   33THF     C1  904   0.509   2.071   1.395  0.5856  1.3445  0.1237
   33THF     C2  905   0.525   2.186   1.497  0.4821 -0.5338  0.2596
   33THF     C3  906   0.675   2.155   1.540 -0.3840  0.4818 -0.1805
   33THF     O1  907   0.680   2.019   1.566 -0.4559 -0.0139 -0.2021
   33THF     C4  908   0.581   1.959   1.479 -0.6325 -0.1761  0.2182
   33THF     H1  909   0.408   2.033   1.376  0.7763 -0.3637  2.3350
   33THF     H2  910   0.556   2.097   1.300  1.6226 -0.5910  0.0773
   33THF     H3  911   0.462   2.158   1.582 -0.4897  2.4390  0.5599
   33THF     H4  912   0.498   2.286   1.461  0.4099 -0.6408  0.0154
   33THF     H5  913   0.749   2.175   1.461  1.6882 -0.2896  1.5240
   33THF     H6  914   0.698   2.208   1.633 -0.6814  0.9741 -0.3840
   33THF     H7  915   0.622   1.884   1.410 -1.9873 -0.9219  0.2096
   33THF     H8  916   0.514   1.904   1.546 -0.2478  0.5541  1.2082
   34THF     C1  917   2.558   3.052   0.925 -0.1601  0.1161  0.2151
   34THF     C2  918   2.562   3.028   1.079 -0.1156 -0.3087 -0.7459
   34THF     C3  919   2.426   3.089   1.124  0.6973  0.2712 -0.2717
   34THF     O1  920   2.343   3.052   1.012  0.2882 -0.2651  0.0024
   34THF     C4  921   2.423   2.985   0.909  0.1664  0.0645 -0.0994
   34THF     H1  922   2.548   3.154   0.886  1.2404 -0.2836 -1.2212
   34THF     H2  923   2.633   2.996   0.868 -1.4485 -2.6092  1.0651
   34THF     H3  924   2.647   3.073   1.132  1.4195 -0.5492 -2.8969
   34THF     H4  925   2.568   2.921   1.100  1.1771 -0.0659  0.1737
   34THF     H5  926   2.388   3.033   1.210  2.0364 -0.1689  0.0510
   34THF     H6  927   2.425   3.198   1.137  0.2041  0.1629  0.6349
   34THF     H7  928   2.436   2.877   0.927  0.1741  0.2138  0.8124
   34THF     H8  929   2.392   3.003   0.805  0.2506 -0.2078 -0.1731
   35THF     C1  930   2.773   2.944   0.393 -0.5367 -0.1202 -0.9693
   35THF     C2  931   2.635   3.004   0.419  0.2490 -0.1356 -0.3422
   35THF     C3  932   2.633   3.009   0.569 -0.4368  0.6229 -0.3656
   35THF     O1  933   2.762   3.017   0.623  0.8521 -0.2618 -0.2949
   35THF     C4  934   2.855   3.019   0.511  0.2031 -0.1741 -0.5992
   35THF     H1  935   2.779   2.835   0.408 -1.9129 -0.3825 -2.2204
   35THF     H2  936   2.810   2.975   0.295 -0.5282 -0.2248 -1.0001
   35THF     H3  937   2.546   2.956   0.377 -1.4621  3.3890 -0.8734
   35THF     H4  938   2.630   3.110   0.392 -0.1332  0.4445  1.9157
   35THF     H5  939   2.569   3.091   0.605 -0.2508 -0.0320  1.5031
   35THF     H6  940   2.597   2.918   0.618  0.6765  0.2812 -0.1901
   35THF     H7  941   2.890   3.122   0.493  1.9289  0.3066  4.6465
   35THF     H8  942   2.949   2.969   0.539  0.5620 -0.5983 -2.5223
   36THF     C1  943   1.244   3.235   0.860 -0.1730 -0.4763 -1.0609
   36THF     C2  944   1.109   3.285   0.804 -0.1890 -0.1151 -0.2493
   36THF     C3  945   1.023   3.158   0.824  0.0585 -0.2093  0.0690
   36THF     O1  946   1.057   3.112   0.962  0.3473  0.7619 -0.0202
   36THF     C4  947   1.193   3.156   0.988  0.2618 -0.0497  0.5185
   36THF     H1  948   1.297   3.172   0.787  1.2850 -0.5300  0.0169
   36THF     H2  949   1.315   3.314   0.886 -1.0559 -0.7421  2.4840
   36THF     H3  950   1.113   3.318   0.700 -1.8863  0.4908 -0.1357
   36THF     H4  951   1.083   3.378   0.857  2.2838 -1.1218  2.9153
   36THF     H5  952   0.915   3.174   0.819  0.3455  1.3236 -1.8009
   36THF     H6  953   1.043   3.076   0.753  1.0741  0.9597 -1.0281
   36THF     H7  954   1.184   3.213   1.081 -1.1441  1.6970 -0.6355
   36THF     H8  955   1.255   3.072   1.021  1.3298  0.6865  0.4230
   37THF     C1  956   0.038   1.310   0.132  0.1251  0.1034  1.1509
   37THF     C2  957   0.022   1.174   0.192 -0.4641 -0.4184  0.2082
   37THF     C3  958  -0.122   1.139   0.161 -0.4162 -0.0048 -0.9161
   37THF     O1  959  -0.118   1.167   0.023  0.0357  0.1570 -0.2275
   37THF     C4  960  -0.046   1.289   0.003  0.5183  0.3975 -0.3884
   37THF     H1  961  -0.007   1.385   0.197 -1.5897  0.4486 -0.3825
   37THF     H2  962   0.136   1.345   0.097 -0.6364  1.8058  0.6767
   37THF     H3  963   0.034   1.167   0.301 -0.9860  0.4466  0.3184
   37THF     H4  964   0.086   1.100   0.141 -0.3618 -0.0124 -0.2489
   37THF     H5  965  -0.148   1.033   0.167  3.4655 -0.9798 -0.1209
   37THF     H6  966  -0.197   1.206   0.206  0.9447  1.0180 -0.1310
   37THF     H7  967   0.013   1.278  -0.088 -1.4623 -0.8280 -1.5741
   37THF     H8  968  -0.114   1.375  -0.006  1.2079  0.7806 -2.0704
   38THF     C1  969   0.823   3.324   0.093 -0.4240  0.1881 -0.2665
   38THF     C2  970   0.901   3.437   0.171 -0.3687  0.0618 -0.1384
   38THF     C3  971   1.043   3.389   0.198  0.5288  0.3263 -0.1748
   38THF     O1  972   1.039   3.252   0.152  0.6024  0.4961  0.1874
   38THF     C4  973   0.905   3.205   0.154  0.1972  0.6384 -0.4141
   38THF     H1  974   0.717   3.315   0.122 -0.4691 -0.8936 -0.7318
   38THF     H2  975   0.847   3.336  -0.013 -0.9227 -1.4237 -0.5735
   38THF     H3  976   0.848   3.455   0.265 -1.9603  0.3078 -1.0558
   38THF     H4  977   0.906   3.538   0.129  0.2232  0.0778 -0.0236
   38THF     H5  978   1.111   3.443   0.132 -0.3605  0.2739 -1.1391
   38THF     H6  979   1.079   3.387   0.302  2.3107  2.1025 -0.7371
   38THF     H7  980   0.886   3.120   0.087  0.6768  0.5587 -0.4486
   38THF     H8  981   0.880   3.179   0.258  0.6260 -0.3517 -0.5480
   39THF     C1  982   1.429   0.154   0.973  0.1344 -0.4650  0.3438
   39THF     C2  983   1.526   0.081   1.064 -0.1615 -0.8050 -0.1572
   39THF     C3  984   1.434   0.009   1.169 -0.0023  0.6098  0.0947
   39THF     O1  985   1.300   0.036   1.124  0.1790  0.1383 -0.4064
   39THF     C4  986   1.301   0.163   1.059 -0.5895  0.0860  0.1316
   39THF     H1  987   1.476   0.248   0.943 -2.3451  1.0407  1.0055
   39THF     H2  988   1.403   0.101   0.880  1.3651  0.5868 -0.6158
   39THF     H3  989   1.589   0.146   1.126  0.5817 -0.9500 -0.7596
   39THF     H4  990   1.600   0.022   1.009  0.6570  0.2540 -0.2027
   39THF     H5  991   1.455  -0.099   1.161  2.2416  0.7185  3.4349
   39THF     H6  992   1.444   0.048   1.271 -0.7213  0.4451  0.2336
   39THF     H7  993   1.212   0.183   0.998  1.0492  2.8183 -1.4904
   39THF     H8  994   1.311   0.248   1.128  2.4591  2.2035 -2.6941
   40THF     C1  995   1.402   3.023   3.681  0.2780  0.6322 -0.0059
   40THF     C2  996   1.261   3.032   3.610  0.0956  0.6847 -0.1711
   40THF     C3  997   1.192   2.904   3.661  0.6049 -0.0200  0.2107
   40THF     O1  998   1.286   2.824   3.730  0.0722  0.0349 -0.1332
   40THF     C4  999   1.423   2.870   3.695  0.1408 -0.2131  0.0448
   40THF     H1 1000   1.473   3.070   3.612 -0.0007 -2.5768 -2.5576
   40THF     H2 1001   1.389   3.079   3.775 -0.0854  0.3641  0.1050
   40THF     H3 1002   1.282   3.034   3.503  2.8403 -1.2354  0.2861
   40THF     H4 1003   1.204   3.124   3.627  1.0701  1.3566 -0.5221
   40THF     H5 1004   1.102   2.917   3.722 -0.8390  0.0125 -1.8781
   40THF     H6 1005   1.146   2.840   3.584 -0.1962 -0.5334  1.1037
   40THF     H7 1006   1.482   2.847   3.784 -1.1118 -1.8479  0.4782
   40THF     H8 1007   1.462   2.822   3.604  0.6346 -0.3793  0.3421
   41THF     C1 1008   0.226   0.774   0.682  0.1939  0.2564  0.5890
   41THF     C2 1009   0.318   0.778   0.551  0.5142 -0.4633  0.4544
   41THF     C3 1010   0.231   0.690   0.454 -0.0347  0.3241 -0.0505
   41THF     O1 1011   0.126   0.644   0.531  0.1376 -0.0327  0.2387
   41THF     C4 1012   0.087   0.745   0.621 -0.2821 -0.0953  0.8903
   41THF     H1 1013   0.245   0.691   0.749  0.5345 -1.0960 -1.1396
   41THF     H2 1014   0.234   0.870   0.734 -2.3437  0.6645  0.3077
   41THF     H3 1015   0.412   0.723   0.562 -0.2266 -2.0487 -0.8967
   41THF     H4 1016   0.327   0.879   0.509  2.2288 -0.5473  0.5873
   41THF     H5 1017   0.195   0.747   0.367  0.5307  0.3338 -0.2806
   41THF     H6 1018   0.289   0.604   0.419  1.2966  1.8275 -1.6722
   41THF     H7 1019   0.046   0.824   0.557 -0.6567 -3.5099 -3.3382
   41THF     H8 1020   0.024   0.717   0.707 -2.8072  0.1278 -0.8198
   42THF     C1 1021   0.550   1.561   1.470 -0.1746 -0.3083  0.5302
   42THF     C2 1022   0.679   1.477   1.460  0.1696 -0.4010  0.4579
   42THF     C3 1023   0.657   1.368   1.563  0.7796  0.1676  0.7269
   42THF     O1 1024   0.522   1.339   1.552 -0.1836  0.0197 -0.6044
   42THF     C4 1025   0.443   1.464   1.530 -0.2595  0.1036 -0.0956
   42THF     H1 1026   0.555   1.640   1.546 -0.5206 -1.2398  1.5402
   42THF     H2 1027   0.529   1.610   1.375 -1.2754  1.6790  1.7610
   42THF     H3 1028   0.774   1.531   1.474  1.1054 -0.7837 -3.7527
   42THF     H4 1029   0.695   1.428   1.364 -1.0415 -2.0929  1.0993
   42THF     H5 1030   0.721   1.282   1.537  0.6354  0.1854  0.3106
   42THF     H6 1031   0.684   1.415   1.659  1.5697 -0.9841  1.0815
   42THF     H7 1032   0.358   1.438   1.465 -0.1790  1.5434 -0.7998
   42THF     H8 1033   0.396   1.505   1.620  0.8997 -0.1560  0.6403
   43THF     C1 1034   0.797   2.059   0.635  0.2196  0.7430  0.3902
   43THF     C2 1035   0.822   2.195   0.551  0.3088  0.0380 -0.7773
   43THF     C3 1036   0.964   2.179   0.504  0.5027 -0.3604  0.2256
   43THF     O1 1037   1.018   2.085   0.600 -0.2362 -0.1757 -0.0891
   43THF     C4 1038   0.924   1.984   0.611 -0.2185  0.3431 -0.2284
   43THF     H1 1039   0.762   2.062   0.739 -2.3259  0.9251 -0.4389
   43THF     H2 1040   0.716   2.007   0.583 -0.9039 -0.7342  3.4831
   43THF     H3 1041   0.816   2.279   0.621  2.1999 -1.3628  1.1607
   43THF     H4 1042   0.751   2.204   0.468 -1.1129  1.1847  0.5307
   43THF     H5 1043   0.968   2.139   0.402  1.3485  2.1471 -0.7547
   43THF     H6 1044   1.023   2.271   0.501 -1.2604  0.7974  0.6849
   43THF     H7 1045   0.922   1.927   0.517 -1.2230  2.7118 -1.6971
   43THF     H8 1046   0.948   1.919   0.695 -0.8058 -0.2056 -0.4808
   44THF     C1 1047   3.348   3.299   1.512  0.8406 -0.0257  0.3501
   44THF     C2 1048   3.415   3.166   1.565 -1.2317  0.1972 -0.5307
   44THF     C3 1049   3.433   3.085   1.434 -0.0548  0.9021 -0.2662
   44THF     O1 1050   3.310   3.112   1.371  0.8521 -0.4850  0.0634
   44THF     C4 1051   3.263   3.242   1.396  0.1593 -0.7832 -0.2486
   44THF     H1 1052   3.285   3.354   1.582  1.1236  0.4855  0.2059
   44THF     H2 1053   3.408   3.377   1.464 -0.5572  0.8020 -0.0748
   44THF     H3 1054   3.343   3.120   1.634 -0.0541 -1.5262 -0.4224
   44THF     H4 1055   3.511   3.190   1.612 -1.9002 -0.9322  1.4716
   44THF     H5 1056   3.511   3.124   1.367 -0.5714  0.0547 -1.3793
   44THF     H6 1057   3.449   2.977   1.443 -3.6696  0.3656  0.4913
   44THF     H7 1058   3.291   3.307   1.312 -0.6490 -1.9484 -1.4225
   44THF     H8 1059   3.157   3.243   1.422  0.0924  2.3662 -0.4576
   45THF     C1 1060   2.596   0.370   1.535 -0.4727 -0.8765 -0.6983
   45THF     C2 1061   2.542   0.509   1.575 -0.3147  0.3351 -0.0242
   45THF     C3 1062   2.521   0.578   1.443  0.1714 -0.6715 -0.5327
   45THF     O1 1063   2.542   0.476   1.343  0.1980 -0.3695  0.6630
   45THF     C4 1064   2.522   0.349   1.400  0.5127 -0.8523 -0.2928
   45THF     H1 1065   2.705   0.383   1.528 -0.5404  0.0641 -0.1561
   45THF     H2 1066   2.567   0.290   1.603 -0.9713  0.0238  0.1664
   45THF     H3 1067   2.620   0.563   1.629  2.4052 -3.2971 -0.0653
   45THF     H4 1068   2.442   0.497   1.619 -0.3355 -1.6712 -0.5388
   45THF     H5 1069   2.423   0.623   1.422  0.5314  0.7416  0.7554
   45THF     H6 1070   2.589   0.661   1.424 -2.1769  0.9919 -1.9124
   45THF     H7 1071   2.417   0.324   1.417  0.5321  0.1854  1.4661
   45THF     H8 1072   2.576   0.277   1.337  2.6585 -0.1255  0.6658
   46THF     C1 1073   0.222   3.065   3.628  0.1196 -0.2203  0.2170
   46THF     C2 1074   0.126   2.950   3.604 -0.1370 -0.9453  0.4401
   46THF     C3 1075   0.010   3.026   3.536  0.3659 -0.5121  0.0990
   46THF     O1 1076   0.072   3.120   3.446  0.5557 -0.4383 -0.0522
   46THF     C4 1077   0.210   3.135   3.491 -0.1524  0.8057  0.5010
   46THF     H1 1078   0.173   3.122   3.707  0.9822 -0.9810  1.3269
   46THF     H2 1079   0.322   3.036   3.663 -0.8941 -0.9427  2.5385
   46THF     H3 1080   0.092   2.904   3.698 -1.3664  0.9814  0.9517
   46THF     H4 1081   0.164   2.873   3.536  2.8631  0.9272 -0.1178
   46THF     H5 1082  -0.058   2.964   3.478 -1.1279  2.1946 -1.0961
   46THF     H6 1083  -0.051   3.082   3.608 -0.9778 -0.6159 -0.9659
   46THF     H7 1084   0.275   3.093   3.414  2.0036  3.4652  0.7727
   46THF     H8 1085   0.237   3.242   3.500  1.4453  0.2651  2.8159
   47THF     C1 1086   1.331   0.553   1.548 -0.2771  0.1834 -1.2935
   47THF     C2 1087   1.420   0.431   1.574  0.3814  0.0664 -0.6649
   47THF     C3 1088   1.434   0.374   1.432  0.7980  0.7779 -0.0168
   47THF     O1 1089   1.434   0.486   1.351 -0.1778  0.1806 -0.2652
   47THF     C4 1090   1.316   0.555   1.392  0.4879  0.8766 -0.4930
   47THF     H1 1091   1.231   0.545   1.592  0.5847 -2.0221  0.3503
   47THF     H2 1092   1.370   0.647   1.590 -1.2128 -0.9273  2.1952
   47THF     H3 1093   1.379   0.365   1.651  2.8943  1.8236  2.2754
   47THF     H4 1094   1.518   0.459   1.615 -0.0380  0.4409  0.0983
   47THF     H5 1095   1.525   0.313   1.417 -0.0361 -0.3253 -0.6671
   47THF     H6 1096   1.347   0.310   1.416  0.9539  0.2562  1.1504
   47THF     H7 1097   1.313   0.654   1.344  0.7317  2.0785  1.8731
   47THF     H8 1098   1.226   0.500   1.362 -0.0940  0.0365  2.5616
   48THF     C1 1099   0.778   0.176   3.143  0.5770  0.4856 -0.1128
   48THF     C2 1100   0.722   0.229   3.274 -0.3204 -0.1370  0.1363
   48THF     C3 1101   0.669   0.101   3.334  0.0552 -0.0032 -0.3580
   48THF     O1 1102   0.726  -0.010   3.259  0.1091 -0.0036 -0.4299
   48THF     C4 1103   0.837   0.048   3.189 -0.5130  0.0827 -0.2386
   48THF     H1 1104   0.704   0.176   3.063 -1.7456 -0.4672  1.9478
   48THF     H2 1105   0.860   0.240   3.109  0.9087 -0.9766 -2.1815
   48THF     H3 1106   0.637   0.297   3.264  0.6420  1.1074  0.2896
   48THF     H4 1107   0.791   0.265   3.352 -1.3435 -0.8908  1.4061
   48THF     H5 1108   0.687   0.108   3.442 -0.4265  2.4789 -0.3937
   48THF     H6 1109   0.561   0.084   3.320 -0.1355  1.7984 -1.3169
   48THF     H7 1110   0.922   0.057   3.257 -2.1901  1.3284  1.7220
   48THF     H8 1111   0.861  -0.018   3.104 -0.2182 -0.0419 -0.0577
   49THF     C1 1112   0.178   1.267   0.608  0.5512  0.4462 -0.0795
   49THF     C2 1113   0.139   1.419   0.609  0.4589  0.5292  0.4594
   49THF     C3 1114   0.268   1.488   0.557  0.0250  0.3371  0.2375
   49THF     O1 1115   0.349   1.377   0.506 -0.2559  0.3753  0.6231
   49THF     C4 1116   0.266   1.259   0.483  0.2375 -0.2659  0.0149
   49THF     H1 1117   0.232   1.246   0.701  2.0525 -0.8704 -1.2219
   49THF     H2 1118   0.100   1.191   0.598 -0.2263  1.3408 -0.9091
   49THF     H3 1119   0.124   1.461   0.709 -0.0006  0.1231  0.5664
   49THF     H4 1120   0.045   1.446   0.558  1.0251  3.1524  0.7431
   49THF     H5 1121   0.253   1.551   0.468  0.4993 -1.5077 -1.1808
   49THF     H6 1122   0.321   1.539   0.638 -1.8082  2.6397  0.0300
   49THF     H7 1123   0.219   1.272   0.385  0.7303  1.4941 -0.0067
   49THF     H8 1124   0.331   1.172   0.467  1.7714  1.0923 -1.3538
   50THF     C1 1125   1.733   3.121   0.754  0.3772  1.5293 -0.4556
   50THF     C2 1126   1.574   3.090   0.722  0.1354 -0.2450  0.4843
   50THF     C3 1127   1.542   3.202   0.623 -0.2777 -0.2094 -0.0371
   50THF     O1 1128   1.662   3.268   0.593 -0.0208  0.8168  0.2036
   50THF     C4 1129   1.745   3.265   0.713 -0.0648  0.0772  0.3220
   50THF     H1 1130   1.776   3.089   0.850 -0.5961  2.2180  0.2133
   50THF     H2 1131   1.797   3.068   0.682 -1.0051  2.6866 -2.5755
   50THF     H3 1132   1.513   3.102   0.813 -0.9502  1.5699 -0.4544
   50THF     H4 1133   1.571   2.989   0.682  1.5450  0.1532 -0.6474
   50THF     H5 1134   1.514   3.153   0.529 -1.4270 -0.1593  0.2774
   50THF     H6 1135   1.464   3.273   0.656 -2.6943 -2.0092 -1.7287
   50THF     H7 1136   1.850   3.282   0.689  0.0751 -1.0070  0.1244
   50THF     H8 1137   1.702   3.339   0.782 -1.1018 -2.3088  2.3462
   51THF     C1 1138   0.714   2.610   1.415 -0.4335 -0.4528 -0.3741
   51THF     C2 1139   0.732   2.577   1.565  0.2791  1.2418  0.0314
   51THF     C3 1140   0.858   2.487   1.561 -0.2492  0.2250 -0.7446
   51THF     O1 1141   0.883   2.458   1.420 -0.5247  0.2279 -0.1528
   51THF     C4 1142   0.759   2.488   1.341 -0.2382  0.0992 -0.3754
   51THF     H1 1143   0.616   2.644   1.379  0.7428  1.4341 -1.9392
   51THF     H2 1144   0.790   2.683   1.383 -0.0204 -0.3201  0.9077
   51THF     H3 1145   0.645   2.523   1.605  2.2265 -1.6019  0.6145
   51THF     H4 1146   0.749   2.665   1.627  2.1310  0.5512  0.5447
   51THF     H5 1147   0.945   2.537   1.606 -2.3484  1.8080  1.6946
   51THF     H6 1148   0.841   2.393   1.614  0.4745 -0.0763 -1.0480
   51THF     H7 1149   0.787   2.519   1.240 -2.2136  0.4005 -0.8623
   51THF     H8 1150   0.684   2.408   1.344  2.0685 -2.1964 -1.7467
   52THF     C1 1151   2.961   1.732   1.398  0.2553 -0.5788  0.2677
   52THF     C2 1152   3.026   1.880   1.375 -0.7217 -0.1327  0.6956
   52THF     C3 1153   3.086   1.907   1.517 -0.1209  0.4544  0.7201
   52THF     O1 1154   3.076   1.784   1.590  0.1776  0.7262 -0.1506
   52THF     C4 1155   2.943   1.740   1.547  0.2464  0.0395 -0.6726
   52THF     H1 1156   2.864   1.715   1.350  0.2381 -0.0148  0.0981
   52THF     H2 1157   3.029   1.648   1.379 -0.8545 -1.5639  0.5525
   52THF     H3 1158   2.944   1.952   1.362 -0.3571  0.2590  0.5870
   52THF     H4 1159   3.096   1.894   1.292 -1.0483 -2.0631  0.0599
   52THF     H5 1160   3.195   1.923   1.520  0.2544 -1.3226 -1.8959
   52THF     H6 1161   3.029   1.979   1.577 -0.8662 -0.2323  0.8375
   52THF     H7 1162   2.920   1.644   1.594  2.5199 -0.8174 -1.2403
   52THF     H8 1163   2.866   1.816   1.565 -0.9925 -1.2232 -0.5669
   53THF     C1 1164   1.025   0.954   1.527  0.2993 -0.5846 -0.2571
   53THF     C2 1165   0.885   1.030   1.524  0.1309 -0.1291  0.1466
   53THF     C3 1166   0.790   0.907   1.512  1.2340  1.1809 -0.2116
   53THF     O1 1167   0.871   0.794   1.469 -0.0315 -0.0524 -0.4485
   53THF     C4 1168   0.989   0.804   1.548  0.4608 -0.9526 -0.8122
   53THF     H1 1169   1.078   0.968   1.432  0.2369 -0.0033 -0.2042
   53THF     H2 1170   1.098   0.993   1.598  0.3561 -0.7971 -0.1966
   53THF     H3 1171   0.879   1.092   1.433  0.2540 -0.5450 -0.1461
   53THF     H4 1172   0.883   1.090   1.616  2.1497  0.8093 -0.3879
   53THF     H5 1173   0.750   0.883   1.612  2.1149 -0.3979 -0.2253
   53THF     H6 1174   0.719   0.918   1.429  0.4862 -0.0912  0.2397
   53THF     H7 1175   0.967   0.780   1.653 -0.3448 -2.8541 -1.4040
   53THF     H8 1176   1.066   0.736   1.508 -0.4137 -1.9258 -0.8608
   54THF     C1 1177   2.833   3.389   1.145  0.2635  1.1485  0.0410
   54THF     C2 1178   2.783   3.415   0.998  0.0606  0.1262  0.1153
   54THF     C3 1179   2.871   3.319   0.907  0.0235 -0.1600  0.0579
   54THF     O1 1180   2.942   3.242   1.000 -0.0417 -0.5413  0.2268
   54THF     C4 1181   2.968   3.327   1.115 -0.0260 -0.4690 -0.0116
   54THF     H1 1182   2.833   3.475   1.213  2.7345  0.7537  0.5895
   54THF     H2 1183   2.765   3.321   1.199  2.1633 -0.9748 -0.1881
   54THF     H3 1184   2.799   3.521   0.973 -0.3358 -0.0001 -0.6839
   54THF     H4 1185   2.676   3.394   0.990  0.0518  0.0375  0.4546
   54THF     H5 1186   2.802   3.254   0.852  0.3690 -3.0711  2.9213
   54THF     H6 1187   2.940   3.373   0.841  0.6524 -1.8559 -0.7006
   54THF     H7 1188   3.026   3.276   1.193  1.7837  0.5488 -0.6747
   54THF     H8 1189   3.033   3.407   1.081 -0.7605  0.6692  1.2174
   55THF     C1 1190   2.853   1.309   3.708 -0.4634 -0.4459  0.2404
   55THF     C2 1191   2.739   1.290   3.812 -0.2206  0.1231  0.2808
   55THF     C3 1192   2.795   1.183   3.907 -0.1111 -0.6113  0.0027
   55THF     O1 1193   2.902   1.128   3.839  0.1603 -0.9061 -0.4404
   55THF     C4 1194   2.970   1.230   3.771  0.5930 -0.1426  0.0758
   55THF     H1 1195   2.821   1.275   3.608 -0.2486  2.3426 -0.8114
   55THF     H2 1196   2.885   1.412   3.693  2.9359 -1.4829 -0.1558
   55THF     H3 1197   2.648   1.244   3.772 -0.3991  0.1271  0.6836
   55THF     H4 1198   2.708   1.382   3.862  3.3500  1.9241 -0.6490
   55THF     H5 1199   2.816   1.231   4.004 -2.6613 -4.6802  2.7271
   55THF     H6 1200   2.721   1.104   3.922 -1.2669  0.4177 -0.2623
   55THF     H7 1201   3.028   1.281   3.849  0.0370  2.3202 -1.0552
   55THF     H8 1202   3.027   1.182   3.691  0.4475  1.2389 -0.8666
   56THF     C1 1203   1.329   0.659   0.631  0.2189 -0.0801 -0.0234
   56THF     C2 1204   1.469   0.597   0.667 -0.3998 -0.7986 -0.5244
   56THF     C3 1205   1.564   0.698   0.607 -1.0113 -0.1731  0.1210
   56THF     O1 1206   1.481   0.780   0.515 -0.1638 -0.0487  0.2044
   56THF     C4 1207   1.355   0.717   0.493  0.1943  0.1509  0.1983
   56THF     H1 1208   1.244   0.596   0.658 -0.2633 -0.1252 -1.5865
   56THF     H2 1209   1.305   0.735   0.707 -1.1169  0.5121 -1.0190
   56THF     H3 1210   1.467   0.497   0.621  1.2544 -1.3664  0.5994
   56THF     H4 1211   1.482   0.582   0.775  1.4800  2.6689 -0.2059
   56THF     H5 1212   1.605   0.763   0.685  0.1579 -0.7782  0.0359
   56THF     H6 1213   1.652   0.657   0.556 -1.1534 -0.1335 -0.1568
   56THF     H7 1214   1.286   0.797   0.462 -1.2079 -1.5936 -1.2946
   56THF     H8 1215   1.363   0.636   0.419 -2.0303 -1.5253  1.7081
   57THF     C1 1216   3.061   1.502   0.335  1.0676  0.2453  0.0254
   57THF     C2 1217   2.977   1.553   0.213  0.0620  0.3716 -0.3576
   57THF     C3 1218   2.919   1.683   0.270  0.1995  0.6426  0.3309
   57THF     O1 1219   3.030   1.736   0.355  0.2232 -0.4832  0.3719
   57THF     C4 1220   3.105   1.625   0.409  0.0112  0.0857  0.2693
   57THF     H1 1221   3.001   1.445   0.407  0.2581 -1.5954 -2.0252
   57THF     H2 1222   3.144   1.444   0.295  0.8007 -0.2772  0.2249
   57THF     H3 1223   2.896   1.485   0.185 -0.3564  0.7616 -0.1099
   57THF     H4 1224   3.038   1.574   0.125 -1.1385  4.1073 -0.3661
   57THF     H5 1225   2.876   1.754   0.198 -0.5678  0.8800  1.0101
   57THF     H6 1226   2.843   1.654   0.343  0.9030 -0.9563  0.4462
   57THF     H7 1227   3.212   1.641   0.394 -0.1006  0.5033 -0.1133
   57THF     H8 1228   3.088   1.610   0.516 -1.9420 -2.0412 -0.2857
   58THF     C1 1229   3.370   0.476   0.048 -0.6999 -0.3276  0.4716
   58THF     C2 1230   3.353   0.596  -0.047 -0.8021  0.4627 -0.3907
   58THF     C3 1231   3.428   0.706   0.029 -0.4348 -0.1242 -0.4291
   58THF     O1 1232   3.541   0.637   0.087  0.1420 -0.1161 -0.2029
   58THF     C4 1233   3.490   0.514   0.145 -0.6590 -0.1558  1.0439
   58THF     H1 1234   3.280   0.461   0.109 -0.5465 -0.6475  0.6223
   58THF     H2 1235   3.399   0.392  -0.016 -0.2248 -0.7290  1.2046
   58THF     H3 1236   3.248   0.625  -0.037 -0.5735  0.8287  1.0281
   58THF     H4 1237   3.397   0.587  -0.147 -0.0678 -1.7531  0.1024
   58THF     H5 1238   3.471   0.786  -0.032  1.5665  0.4940  1.7225
   58THF     H6 1239   3.371   0.747   0.114  0.0545  1.5742 -0.9153
   58THF     H7 1240   3.573   0.443   0.153  0.6745  1.1935 -0.5687
   58THF     H8 1241   3.444   0.538   0.242  0.4192  2.7883  0.8669
   59THF     C1 1242   0.733   3.035   1.115 -0.0992  0.1343  0.3264
   59THF     C2 1243   0.821   2.919   1.154  0.6781 -0.1353  0.2565
   59THF     C3 1244   0.835   2.849   1.019  0.8156 -0.9409 -0.8388
   59THF     O1 1245   0.698   2.852   0.966 -0.4181  0.7028  0.3145
   59THF     C4 1246   0.621   2.960   1.025 -0.6862 -0.0521 -0.0919
   59THF     H1 1247   0.693   3.080   1.206 -2.9535  0.4709 -1.0373
   59THF     H2 1248   0.775   3.112   1.049 -0.2483 -0.4550 -0.4636
   59THF     H3 1249   0.768   2.850   1.222 -1.2755  0.3080 -0.7915
   59THF     H4 1250   0.911   2.961   1.200 -0.3325  0.5529  1.6469
   59THF     H5 1251   0.902   2.903   0.952 -0.2523 -0.7900 -1.8139
   59THF     H6 1252   0.876   2.748   1.029  0.6009 -1.0229 -0.7853
   59THF     H7 1253   0.589   3.026   0.944 -0.1514  0.8442  0.4243
   59THF     H8 1254   0.531   2.921   1.076  1.0730 -0.0318  3.1243
   60THF     C1 1255   0.397   0.345   0.909 -0.3509 -0.3638  0.9030
   60THF     C2 1256   0.425   0.287   0.765 -0.4821  1.2199 -0.7010
   60THF     C3 1257   0.574   0.249   0.781  0.0796 -0.5747  0.0549
   60THF     O1 1258   0.581   0.212   0.920  0.5394  0.4828 -0.0710
   60THF     C4 1259   0.521   0.319   0.995  0.1055 -0.2539  0.1402
   60THF     H1 1260   0.374   0.452   0.900  1.9917 -0.0215 -1.6408
   60THF     H2 1261   0.316   0.289   0.957 -1.0347 -3.0067 -3.0842
   60THF     H3 1262   0.414   0.363   0.687 -0.0091  2.1084  0.0879
   60THF     H4 1263   0.369   0.196   0.741 -0.0701  1.1378 -1.3671
   60THF     H5 1264   0.602   0.158   0.725  0.9543 -0.6261  0.5642
   60THF     H6 1265   0.640   0.336   0.773  1.7687 -1.7591  0.7472
   60THF     H7 1266   0.500   0.284   1.096  3.9291  0.9742  1.4653
   60THF     H8 1267   0.592   0.402   1.009  0.7076 -0.4846 -1.4244
   61THF     C1 1268   2.152   0.149   0.137 -0.2718  0.2894  0.8292
   61THF     C2 1269   2.262   0.251   0.153  0.1049  0.0573 -0.2601
   61THF     C3 1270   2.177   0.378   0.177  0.3149  0.6294  0.3391
   61THF     O1 1271   2.071   0.329   0.249 -0.1732 -0.2949  0.0476
   61THF     C4 1272   2.024   0.213   0.185  0.4444 -0.1154 -0.6367
   61THF     H1 1273   2.139   0.109   0.035  0.2653  0.0800  0.8450
   61THF     H2 1274   2.174   0.054   0.187  1.1930  0.0068 -0.3054
   61THF     H3 1275   2.328   0.264   0.066  1.3057 -1.6579  0.3710
   61THF     H4 1276   2.324   0.230   0.240 -1.4371  0.4232  0.9436
   61THF     H5 1277   2.219   0.456   0.241  1.3111 -0.7049  1.3281
   61THF     H6 1278   2.140   0.409   0.078  2.3609 -2.3239 -1.4448
   61THF     H7 1279   1.966   0.150   0.254  2.0166 -0.0185  0.7898
   61THF     H8 1280   1.967   0.249   0.098 -1.1282 -0.3988  0.2652
   62THF     C1 1281   0.454   1.030   1.502 -0.0161  0.5893 -0.3465
   62THF     C2 1282   0.314   1.095   1.522 -0.0449 -0.4603  0.1362
   62THF     C3 1283   0.281   1.124   1.372  0.3971  0.1010 -0.4867
   62THF     O1 1284   0.323   1.006   1.306  0.2982 -0.4688  0.3751
   62THF     C4 1285   0.463   0.991   1.342 -0.4834 -0.7432 -0.1095
   62THF     H1 1286   0.541   1.077   1.549  0.9192  0.1348 -1.5841
   62THF     H2 1287   0.459   0.932   1.551  1.7403  0.6440 -0.3763
   62THF     H3 1288   0.323   1.187   1.580  0.0270  0.3980 -1.1955
   62THF     H4 1289   0.239   1.028   1.564 -1.3150 -0.8354 -2.5858
   62THF     H5 1290   0.174   1.135   1.350  0.3393  1.1394  0.2911
   62THF     H6 1291   0.339   1.212   1.341 -2.2293  2.3036  0.7208
   62THF     H7 1292   0.478   0.884   1.320  1.6045 -0.2998 -0.8437
   62THF     H8 1293   0.527   1.055   1.281 -1.4335 -0.3955 -0.7511
   63THF     C1 1294   0.606   2.449   0.993  0.0216  0.2018  0.0235
   63THF     C2 1295   0.521   2.572   1.022 -0.1205  0.3264  0.0114
   63THF     C3 1296   0.440   2.548   1.142 -0.3185 -0.2701 -0.6722
   63THF     O1 1297   0.479   2.417   1.177  0.1161  0.3378 -0.3892
   63THF     C4 1298   0.510   2.351   1.059 -0.1714  0.3026  0.5476
   63THF     H1 1299   0.621   2.440   0.885 -0.5524  1.0917 -0.1422
   63THF     H2 1300   0.705   2.444   1.039  1.1846  0.9415 -2.3262
   63THF     H3 1301   0.447   2.598   0.945 -0.9000 -0.0424  0.6365
   63THF     H4 1302   0.591   2.656   1.029  2.6271 -2.0973  2.5204
   63THF     H5 1303   0.459   2.608   1.231 -0.6551 -1.3269  0.1328
   63THF     H6 1304   0.331   2.551   1.125 -0.3851  0.2492 -0.1773
   63THF     H7 1305   0.560   2.255   1.077 -1.9970 -1.2708 -2.2557
   63THF     H8 1306   0.416   2.331   1.005  0.2709 -1.5035  0.3997
   64THF     C1 1307   2.291   3.259   3.511  0.0034 -0.4869 -0.2324
   64THF     C2 1308   2.235   3.394   3.569  0.4986 -0.6436 -0.2063
   64THF     C3 1309   2.084   3.366   3.539 -0.4173 -0.8110 -0.7787
   64THF     O1 1310   2.090   3.333   3.397  0.3226  0.4626 -0.5616
   64THF     C4 1311   2.202   3.237   3.384  0.1363  0.7881 -0.5101
   64THF     H1 1312   2.397   3.270   3.485 -0.2716  1.7494 -0.5012
   64THF     H2 1313   2.295   3.176   3.581 -1.2043  1.0515  1.7116
   64THF     H3 1314   2.271   3.484   3.518  0.7599 -1.9187 -2.3471
   64THF     H4 1315   2.249   3.410   3.677  0.2988 -2.2603  0.0639
   64THF     H5 1316   2.051   3.280   3.600  0.5553 -1.2197 -0.8083
   64THF     H6 1317   2.023   3.453   3.566  0.5847 -0.1471 -0.5974
   64THF     H7 1318   2.160   3.136   3.393 -1.1633  1.4535  1.1612
   64THF     H8 1319   2.244   3.266   3.287  2.5754 -1.5915 -0.2472
   65THF     C1 1320   0.589   3.180   0.626 -0.1543  0.3787  0.1656
   65THF     C2 1321   0.661   3.311   0.584  0.6836 -0.0246 -0.5168
   65THF     C3 1322   0.788   3.259   0.506 -0.4192  0.0097 -0.3356
   65THF     O1 1323   0.826   3.148   0.585 -0.4195 -0.0190 -0.0934
   65THF     C4 1324   0.713   3.088   0.648  0.5072  0.1844 -0.2979
   65THF     H1 1325   0.531   3.191   0.719 -1.3534  1.0223 -0.6347
   65THF     H2 1326   0.521   3.138   0.551  2.7669 -1.0380 -1.7748
   65THF     H3 1327   0.700   3.369   0.668  2.1964 -1.2597 -0.3387
   65THF     H4 1328   0.595   3.370   0.520  0.9217 -0.3231 -1.0426
   65THF     H5 1329   0.750   3.222   0.410 -4.2108 -2.8723  2.0839
   65THF     H6 1330   0.867   3.329   0.476  1.2792 -0.7833  2.1154
   65THF     H7 1331   0.698   2.987   0.608 -0.8710  0.2803 -0.0330
   65THF     H8 1332   0.741   3.068   0.753 -1.4600  1.5101  0.5037
   66THF     C1 1333   2.553   0.498   0.592  0.5902 -0.3905  0.6172
   66THF     C2 1334   2.530   0.466   0.441  0.7753  0.4369  0.0867
   66THF     C3 1335   2.574   0.598   0.371 -0.8705  0.3301 -0.0663
   66THF     O1 1336   2.572   0.700   0.474 -0.4617 -0.2305  0.1699
   66THF     C4 1337   2.502   0.649   0.584  0.4202  0.5559 -0.9344
   66THF     H1 1338   2.494   0.434   0.658  1.1606 -0.0670  1.4508
   66THF     H2 1339   2.657   0.494   0.625  0.5575  0.4031  0.8209
   66THF     H3 1340   2.426   0.447   0.411 -0.5428  1.2825  3.7588
   66THF     H4 1341   2.599   0.386   0.414  1.2476  0.4000  1.3524
   66THF     H5 1342   2.663   0.591   0.308 -1.2195 -1.2556 -0.3903
   66THF     H6 1343   2.496   0.630   0.301 -1.7753 -2.1922 -0.2626
   66THF     H7 1344   2.534   0.710   0.669  4.2426  0.1052 -1.9654
   66THF     H8 1345   2.396   0.658   0.559 -0.0200 -1.1663  0.2014
   67THF     C1 1346   2.386   3.251   1.430 -0.3909  0.2297 -0.6578
   67THF     C2 1347   2.347   3.286   1.577  0.0972 -0.4297 -0.0268
   67THF     C3 1348   2.314   3.435   1.572 -0.6155 -0.3970  0.6574
   67THF     O1 1349   2.351   3.480   1.442 -0.1118 -0.0893 -0.3123
   67THF     C4 1350   2.432   3.383   1.377  0.1527 -0.8309 -0.3029
   67THF     H1 1351   2.457   3.168   1.424 -0.0767  0.4304  0.1659
   67THF     H2 1352   2.296   3.221   1.377  0.3159  0.3451 -1.9405
   67THF     H3 1353   2.430   3.279   1.648 -0.3547 -0.0307  0.5420
   67THF     H4 1354   2.270   3.223   1.623 -0.4427 -1.1734 -1.8902
   67THF     H5 1355   2.214   3.470   1.602 -0.1824  2.0257 -0.5880
   67THF     H6 1356   2.383   3.487   1.640 -0.5068  0.5874 -0.2016
   67THF     H7 1357   2.427   3.388   1.267 -2.3409 -1.2967 -0.2362
   67THF     H8 1358   2.532   3.388   1.422  0.1059  0.6371 -0.3193
   68THF     C1 1359   1.936   0.727   0.582 -0.6706 -0.2692 -0.2639
   68THF     C2 1360   1.988   0.615   0.474  0.2288 -0.0956 -0.2018
   68THF     C3 1361   2.138   0.612   0.502  0.0490  0.0044  0.0612
   68THF     O1 1362   2.148   0.645   0.643 -0.4458  0.1637  0.5368
   68THF     C4 1363   2.063   0.749   0.672 -0.4223  0.4381 -0.3496
   68THF     H1 1364   1.907   0.808   0.514 -0.4388 -0.4055 -0.5289
   68THF     H2 1365   1.855   0.693   0.647  0.7546 -0.9038  1.1808
   68THF     H3 1366   1.974   0.649   0.371  1.2440  0.0948 -0.2858
   68THF     H4 1367   1.925   0.527   0.496 -1.0405  0.4020 -1.7697
   68THF     H5 1368   2.183   0.514   0.482  2.6689  1.2939 -0.4360
   68THF     H6 1369   2.177   0.690   0.437 -0.8196 -0.7530 -1.3835
   68THF     H7 1370   2.053   0.744   0.781 -0.0435  0.2729 -0.3198
   68THF     H8 1371   2.109   0.846   0.647  0.8295 -0.3217 -1.0657
   69THF     C1 1372   0.932   0.871   1.103  0.2332 -0.3411 -0.7012
   69THF     C2 1373   1.026   0.988   1.111  0.0566  0.4606 -0.1514
   69THF     C3 1374   0.932   1.107   1.150 -0.3553 -0.3356  0.1313
   69THF     O1 1375   0.796   1.064   1.138 -0.6664  0.1413 -0.1666
   69THF     C4 1376   0.805   0.939   1.053  0.1682 -0.0433 -0.1561
   69THF     H1 1377   0.979   0.800   1.034  2.8542  1.4116 -0.7739
   69THF     H2 1378   0.919   0.826   1.202 -0.4116 -0.0818 -0.6632
   69THF     H3 1379   1.070   0.989   1.011 -0.9964  0.0036 -0.6333
   69THF     H4 1380   1.103   0.974   1.187  1.3172 -1.1515 -1.6806
   69THF     H5 1381   0.964   1.128   1.253  1.2466  0.3855 -0.4855
   69THF     H6 1382   0.945   1.202   1.097  0.0994 -0.8893 -0.7478
   69THF     H7 1383   0.721   0.869   1.062  0.3409 -0.0985  1.1045
   69THF     H8 1384   0.813   0.964   0.946  1.6612 -0.9615 -0.2827
   70THF     C1 1385   0.894   1.593   0.872 -0.8556 -0.1059 -0.3724
   70THF     C2 1386   0.907   1.541   1.016 -0.2014  0.6626 -0.4300
   70THF     C3 1387   0.780   1.596   1.085 -0.8594  0.0542 -0.0919
   70THF     O1 1388   0.701   1.658   0.977  0.0890  0.0635  0.0543
   70THF     C4 1389   0.746   1.609   0.847  0.6499  0.5118  0.2193
   70THF     H1 1390   0.943   1.691   0.874  1.6424 -1.3169 -0.2050
   70THF     H2 1391   0.949   1.535   0.796 -0.0142  0.7668 -0.4364
   70THF     H3 1392   0.999   1.570   1.068 -0.6619  2.9291 -0.8578
   70THF     H4 1393   0.903   1.431   1.020 -0.8241  0.6543 -1.2416
   70THF     H5 1394   0.723   1.514   1.131 -0.1565 -1.1205 -1.2773
   70THF     H6 1395   0.791   1.672   1.164 -2.0566  0.7143 -0.5677
   70THF     H7 1396   0.684   1.522   0.823  0.1356  1.2967 -1.3419
   70THF     H8 1397   0.734   1.690   0.774 -0.6414  1.4371  1.4395
   71THF     C1 1398   1.820   1.495   0.950  0.1370 -0.0853  0.1047
   71THF     C2 1399   1.965   1.504   0.988  0.2741 -0.1421  0.1093
   71THF     C3 1400   1.957   1.473   1.140 -0.6885  0.3297 -0.0574
   71THF     O1 1401   1.812   1.467   1.166 -0.2311 -0.1844 -0.5514
   71THF     C4 1402   1.753   1.550   1.077 -0.3039 -0.7392  0.5900
   71THF     H1 1403   1.795   1.562   0.867 -0.1885 -1.3780 -0.8723
   71THF     H2 1404   1.776   1.397   0.925 -0.8060  0.7016 -1.4173
   71THF     H3 1405   2.001   1.608   0.983 -2.1671  0.6738 -1.3721
   71THF     H4 1406   2.028   1.442   0.923  1.7824  1.4512 -0.0010
   71THF     H5 1407   2.011   1.383   1.171 -0.4050  0.1195 -1.1140
   71THF     H6 1408   2.001   1.547   1.207 -1.0886  1.9775 -1.5670
   71THF     H7 1409   1.647   1.525   1.077 -0.1490 -1.5723 -2.2024
   71THF     H8 1410   1.775   1.655   1.098  0.7291 -1.2127  1.9317
   72THF     C1 1411   2.508   1.052   3.448  0.7538 -0.2417 -0.4764
   72THF     C2 1412   2.602   0.949   3.515  0.3002  0.6491  0.7257
   72THF     C3 1413   2.744   0.987   3.457  0.2322  0.1865  0.6850
   72THF     O1 1414   2.723   1.098   3.363 -0.1995 -0.1366 -0.4008
   72THF     C4 1415   2.586   1.089   3.319 -0.6299 -0.4165  0.6748
   72THF     H1 1416   2.408   1.014   3.423  0.9343 -0.3157 -1.0799
   72THF     H2 1417   2.491   1.147   3.501 -0.2325 -0.4322 -0.4365
   72THF     H3 1418   2.585   0.847   3.478  1.9594  1.2586 -1.8951
   72THF     H4 1419   2.602   0.941   3.624 -0.1113 -1.4255  0.5967
   72THF     H5 1420   2.816   1.007   3.537  2.7107 -2.0947 -0.8725
   72THF     H6 1421   2.788   0.901   3.405 -0.3566 -1.4288  2.8233
   72THF     H7 1422   2.569   1.191   3.282 -1.8439 -0.6149  0.6801
   72THF     H8 1423   2.562   1.009   3.248 -0.5812  0.0748  0.1037
   73THF     C1 1424   1.978   2.908   1.366  0.0361  0.9736 -0.0102
   73THF     C2 1425   2.093   3.007   1.413 -0.2265 -0.2715  1.1660
   73THF     C3 1426   2.094   2.962   1.565 -0.5775 -0.3995  0.5275
   73THF     O1 1427   2.098   2.820   1.554  0.3799 -0.0379 -0.1737
   73THF     C4 1428   2.018   2.783   1.444 -0.9973  0.5104 -0.3310
   73THF     H1 1429   1.884   2.955   1.397 -0.4231 -1.2407  2.1206
   73THF     H2 1430   1.970   2.883   1.260 -1.9797 -0.2820  0.4171
   73THF     H3 1431   2.059   3.109   1.394 -2.1836 -0.6169  2.7020
   73THF     H4 1432   2.188   2.986   1.362 -0.7133 -1.3346  0.6815
   73THF     H5 1433   2.185   2.999   1.614  1.4176 -0.0181 -3.2344
   73THF     H6 1434   2.002   2.997   1.614 -0.0096  0.4921  0.9640
   73THF     H7 1435   2.070   2.705   1.388 -0.5090 -0.6854  1.7271
   73THF     H8 1436   1.927   2.729   1.475 -1.0141  0.7653  0.0723
   74THF     C1 1437   1.671   1.939   0.591 -1.0785 -0.5994 -0.2126
   74THF     C2 1438   1.758   1.972   0.461  0.3913 -0.8116  0.1116
   74THF     C3 1439   1.881   1.890   0.496  0.0556 -0.2580  0.6334
   74THF     O1 1440   1.847   1.779   0.576  0.4242 -0.3341  0.0728
   74THF     C4 1441   1.716   1.797   0.634 -0.3297 -0.8019 -0.5183
   74THF     H1 1442   1.691   2.006   0.675 -0.0092  0.2875 -1.1557
   74THF     H2 1443   1.566   1.945   0.562 -0.7739 -0.5788 -1.3202
   74THF     H3 1444   1.784   2.076   0.437  0.9284 -1.0440 -0.3088
   74THF     H4 1445   1.703   1.940   0.372 -1.5675  1.5820  0.3951
   74THF     H5 1446   1.913   1.845   0.400  1.0098  2.1070 -0.1831
   74THF     H6 1447   1.967   1.942   0.540  0.3227  0.6076 -0.8617
   74THF     H7 1448   1.649   1.713   0.611 -1.1543 -0.3197  0.1061
   74THF     H8 1449   1.719   1.783   0.743  3.5639 -0.1591 -0.4841
   75THF     C1 1450   2.253   1.936   0.228 -0.0921 -0.4973  0.4124
   75THF     C2 1451   2.258   1.790   0.188  0.3064  0.3626  0.7452
   75THF     C3 1452   2.239   1.788   0.040 -0.1509 -0.2086  0.7584
   75THF     O1 1453   2.217   1.922   0.012  0.3144  0.0115  0.1266
   75THF     C4 1454   2.298   1.998   0.098 -0.5158 -0.0111  0.7084
   75THF     H1 1455   2.153   1.972   0.252 -0.6093 -0.6645 -1.4139
   75THF     H2 1456   2.320   1.970   0.307 -0.0974 -0.3746  0.3638
   75THF     H3 1457   2.185   1.718   0.225 -0.0741  0.1238 -0.4503
   75THF     H4 1458   2.360   1.751   0.200 -0.6276 -2.0375  1.2396
   75THF     H5 1459   2.329   1.755  -0.014 -1.0327 -0.4561 -0.6057
   75THF     H6 1460   2.151   1.735   0.002  1.2840 -0.7151 -2.0680
   75THF     H7 1461   2.402   1.977   0.070 -1.1059 -2.0303 -0.0088
   75THF     H8 1462   2.279   2.106   0.089  1.3359  0.4223  1.6656
   76THF     C1 1463   0.637   0.833   3.247  0.3945 -0.3236  0.5098
   76THF     C2 1464   0.478   0.841   3.247 -0.9453  0.2137  0.8077
   76THF     C3 1465   0.451   0.913   3.385  0.4582 -0.1054  0.1202
   76THF     O1 1466   0.559   0.989   3.414 -0.3618  0.4458  0.0307
   76THF     C4 1467   0.674   0.907   3.380  0.1161  0.2108  0.4846
   76THF     H1 1468   0.670   0.729   3.242  2.0634  0.0967  1.9880
   76THF     H2 1469   0.672   0.883   3.156 -0.8005  0.7768  0.6286
   76THF     H3 1470   0.436   0.741   3.259  1.3840 -0.9979 -0.6874
   76THF     H4 1471   0.443   0.905   3.165  0.0383  0.4455  0.5542
   76THF     H5 1472   0.360   0.973   3.393  0.7407  0.1824  1.2902
   76THF     H6 1473   0.441   0.826   3.451  1.5412  0.1257  0.5920
   76THF     H7 1474   0.762   0.971   3.367  0.7670 -1.1999 -2.4748
   76THF     H8 1475   0.692   0.837   3.461 -1.4823 -0.2802  0.4454
   77THF     C1 1476   3.184   3.129   0.731 -0.5387  0.0826  0.3910
   77THF     C2 1477   3.219   3.076   0.584 -0.4526  0.1655 -0.5480
   77THF     C3 1478   3.360   3.151   0.555 -0.0391 -0.1151  0.2563
   77THF     O1 1479   3.363   3.252   0.654  0.1740  0.0629 -0.2301
   77THF     C4 1480   3.309   3.202   0.778 -0.3163 -0.0804 -0.6607
   77THF     H1 1481   3.089   3.184   0.730 -0.1934  0.6831 -0.1003
   77THF     H2 1482   3.163   3.043   0.795  3.6173 -0.6908  0.8547
   77THF     H3 1483   3.140   3.089   0.509  0.4463 -0.1063 -1.5597
   77THF     H4 1484   3.243   2.970   0.588 -2.2086 -0.2406 -0.6047
   77THF     H5 1485   3.442   3.079   0.566  0.7661  0.7574 -0.0491
   77THF     H6 1486   3.368   3.189   0.452  1.9598 -0.5401  0.2326
   77THF     H7 1487   3.381   3.129   0.818  0.5975  0.1600 -1.8404
   77THF     H8 1488   3.285   3.281   0.850 -2.2922 -1.5762  0.3763
   78THF     C1 1489   2.015   1.399   1.509 -0.6266  0.0189  1.1055
   78THF     C2 1490   1.884   1.483   1.529 -0.7179  1.0924 -0.2221
   78THF     C3 1491   1.770   1.372   1.546  0.7000  0.1249  0.2131
   78THF     O1 1492   1.838   1.247   1.554 -0.1253 -0.6054  0.4853
   78THF     C4 1493   1.951   1.267   1.465  0.5974 -0.1636  0.1506
   78THF     H1 1494   2.070   1.438   1.423  0.6356 -3.1894  0.3922
   78THF     H2 1495   2.070   1.372   1.600 -0.2020 -0.6153  0.6649
   78THF     H3 1496   1.851   1.541   1.442 -0.1514  0.7716 -0.6553
   78THF     H4 1497   1.892   1.556   1.610  0.6799 -1.7616  2.2939
   78THF     H5 1498   1.709   1.385   1.637 -2.7577  0.6881 -2.0919
   78THF     H6 1499   1.705   1.366   1.458 -0.0469  0.7844  0.7068
   78THF     H7 1500   2.025   1.187   1.481  1.6308  1.0215  1.3392
   78THF     H8 1501   1.907   1.266   1.365  0.9605  3.3727 -0.0819
   79THF     C1 1502   1.632   2.536   3.689 -0.1837 -0.2797  0.6250
   79THF     C2 1503   1.560   2.452   3.575 -0.3944 -0.7901  0.5701
   79THF     C3 1504   1.566   2.318   3.640  0.1943  0.2288 -0.4883
   79THF     O1 1505   1.515   2.346   3.768 -0.2515  0.2400  0.1101
   79THF     C4 1506   1.564   2.475   3.814  0.0559 -0.4555  0.1873
   79THF     H1 1507   1.741   2.520   3.683 -0.5073 -1.6710 -3.2400
   79THF     H2 1508   1.606   2.640   3.666  0.0105 -0.4135 -0.2393
   79THF     H3 1509   1.610   2.441   3.478 -2.4892 -1.2180 -0.4944
   79THF     H4 1510   1.453   2.474   3.570  0.0759  0.9033 -3.2007
   79THF     H5 1511   1.497   2.254   3.584 -2.2378  1.7393  0.6526
   79THF     H6 1512   1.671   2.287   3.648  0.5241  1.1775 -1.0246
   79THF     H7 1513   1.480   2.532   3.857 -1.4020 -1.3466 -1.3971
   79THF     H8 1514   1.639   2.452   3.890 -0.3102  0.3295  0.7988
   80THF     C1 1515   1.092   2.490   0.774 -0.2878  0.4931  0.4035
   80THF     C2 1516   1.010   2.570   0.882  0.4742 -0.2700  0.2712
   80THF     C3 1517   1.092   2.553   1.013 -0.1339  0.4353 -1.0255
   80THF     O1 1518   1.216   2.496   0.981 -0.5123  0.7392 -0.8456
   80THF     C4 1519   1.232   2.505   0.836  0.1066  0.6001  0.6718
   80THF     H1 1520   1.062   2.385   0.771 -0.3970  0.5696 -1.2923
   80THF     H2 1521   1.065   2.527   0.675 -0.2394 -1.4012 -0.3309
   80THF     H3 1522   0.912   2.523   0.893  0.9778 -1.3615  0.2366
   80THF     H4 1523   0.997   2.673   0.846 -0.5312  0.5865  2.9946
   80THF     H5 1524   1.107   2.654   1.054  0.2689  0.5384 -1.4151
   80THF     H6 1525   1.049   2.483   1.086  2.1520 -2.2135 -2.1183
   80THF     H7 1526   1.268   2.606   0.813 -0.4177  0.5115 -0.6160
   80THF     H8 1527   1.295   2.422   0.801 -0.7451 -0.0808  0.7211
   81THF     C1 1528   1.128   2.296   1.473  0.3723 -0.2454  0.7254
   81THF     C2 1529   1.113   2.298   1.321 -0.0316 -0.8014  0.3667
   81THF     C3 1530   1.265   2.312   1.286 -0.8142 -0.1263 -0.7996
   81THF     O1 1531   1.320   2.214   1.375  0.2055 -0.1890  0.2580
   81THF     C4 1532   1.251   2.214   1.504 -1.0418 -0.4393 -0.4415
   81THF     H1 1533   1.141   2.398   1.511  1.3401 -0.6335  1.4627
   81THF     H2 1534   1.042   2.248   1.521  1.4774 -1.9518  1.0158
   81THF     H3 1535   1.053   2.381   1.281  0.5046 -0.9965 -0.8767
   81THF     H4 1536   1.068   2.210   1.275 -2.0683  1.5309 -2.3488
   81THF     H5 1537   1.280   2.299   1.178 -0.5256 -0.6288 -0.7008
   81THF     H6 1538   1.299   2.411   1.319 -0.1417  0.6369 -3.6613
   81THF     H7 1539   1.211   2.117   1.537  2.7966 -2.0424 -0.3272
   81THF     H8 1540   1.317   2.254   1.582  0.0725  0.1485 -1.6652
   82THF     C1 1541   1.891   2.663   0.330  0.3602 -0.1830  0.2795
   82THF     C2 1542   1.789   2.779   0.327 -0.2384 -0.1161  0.5995
   82THF     C3 1543   1.682   2.709   0.418  0.3548  0.5225 -0.4811
   82THF     O1 1544   1.674   2.588   0.347 -0.1373  0.2329 -0.4974
   82THF     C4 1545   1.799   2.543   0.312 -0.2518 -0.5429  1.1048
   82THF     H1 1546   1.967   2.662   0.250  0.3611  0.6591  0.2625
   82THF     H2 1547   1.937   2.649   0.428 -1.1670  1.8105  1.2984
   82THF     H3 1548   1.759   2.787   0.222 -1.5057  0.9268  1.0322
   82THF     H4 1549   1.828   2.877   0.355  0.6872 -0.0486 -0.8944
   82THF     H5 1550   1.722   2.692   0.519 -1.9340 -3.4793 -0.1631
   82THF     H6 1551   1.591   2.770   0.422 -0.6677 -1.0473  1.0793
   82THF     H7 1552   1.841   2.464   0.375  0.8691  0.1225  1.2076
   82THF     H8 1553   1.804   2.516   0.205  0.2610  0.1117  0.9642
   83THF     C1 1554   2.867   3.154   1.463 -0.4889 -0.0254  0.5941
   83THF     C2 1555   2.760   3.044   1.458  0.5569  0.0463  0.1130
   83THF     C3 1556   2.680   3.091   1.584 -0.0752 -0.3230 -0.0487
   83THF     O1 1557   2.669   3.232   1.570  0.4949  0.3108 -0.0514
   83THF     C4 1558   2.794   3.280   1.513  0.3929 -0.6097  0.1177
   83THF     H1 1559   2.949   3.124   1.528  2.2652  1.8979 -1.8365
   83THF     H2 1560   2.901   3.154   1.358 -0.8244 -1.7176  0.4843
   83THF     H3 1561   2.808   2.946   1.466 -0.1420 -0.2754  0.3186
   83THF     H4 1562   2.699   3.038   1.367  1.9927 -0.9377 -0.8074
   83THF     H5 1563   2.577   3.055   1.595 -0.2378  0.0126 -0.4660
   83THF     H6 1564   2.744   3.059   1.667  1.0225  0.4433 -0.5896
   83THF     H7 1565   2.779   3.355   1.435  0.3379 -0.4676  0.2657
   83THF     H8 1566   2.856   3.332   1.586  2.0713 -2.7329  0.2680
   84THF     C1 1567   2.419   0.984   0.537 -0.1455 -0.0814 -0.5846
   84THF     C2 1568   2.319   1.093   0.473  0.1215 -0.0761  0.8852
   84THF     C3 1569   2.299   1.196   0.593 -0.4115  0.2998  0.7919
   84THF     O1 1570   2.412   1.164   0.676  0.1003 -0.3671 -0.2986
   84THF     C4 1571   2.509   1.093   0.607  0.1546 -0.0976 -0.1423
   84THF     H1 1572   2.366   0.917   0.606 -3.0269  1.3132 -1.3636
   84THF     H2 1573   2.469   0.924   0.460 -1.1702  0.6720 -1.8668
   84THF     H3 1574   2.224   1.043   0.447 -0.0811  0.0942  1.2871
   84THF     H4 1575   2.369   1.147   0.393 -1.2166 -1.0405 -0.6462
   84THF     H5 1576   2.296   1.302   0.562 -0.0420 -0.3334 -1.5043
   84THF     H6 1577   2.209   1.176   0.652 -1.5072 -0.5206 -1.0945
   84THF     H7 1578   2.555   1.157   0.531  2.0806 -1.1021  0.1555
   84THF     H8 1579   2.589   1.049   0.668 -0.8743 -2.1276 -0.2048
   85THF     C1 1580   1.655   2.815   1.166  0.7284 -0.0452 -0.3534
   85THF     C2 1581   1.532   2.755   1.105  0.3285 -0.7609  0.7222
   85THF     C3 1582   1.460   2.878   1.041 -0.3046 -0.5379  0.0352
   85THF     O1 1583   1.552   2.991   1.062 -0.0317  0.1783 -0.3784
   85THF     C4 1584   1.624   2.969   1.181 -0.0978  0.1222 -0.2780
   85THF     H1 1585   1.669   2.777   1.268 -1.6325  0.7440  0.3114
   85THF     H2 1586   1.731   2.790   1.093  0.1781  2.7844 -1.9671
   85THF     H3 1587   1.464   2.714   1.180  0.8755 -0.3905  1.4258
   85THF     H4 1588   1.547   2.674   1.033 -1.0772 -1.4324  1.1718
   85THF     H5 1589   1.431   2.871   0.936  0.2099 -0.0484 -0.1383
   85THF     H6 1590   1.363   2.895   1.090  0.0422  2.1717 -0.1731
   85THF     H7 1591   1.722   3.017   1.179  0.6875 -1.4284 -0.2433
   85THF     H8 1592   1.566   2.992   1.271  1.8169  1.5675  0.6302
   86THF     C1 1593   2.765   2.491   0.374 -0.6098 -0.1683 -0.2074
   86THF     C2 1594   2.620   2.494   0.319  1.0845  0.2491 -0.3620
   86THF     C3 1595   2.567   2.621   0.394  0.0668  0.0913 -0.1914
   86THF     O1 1596   2.623   2.611   0.525 -0.4400 -0.2145 -0.7647
   86THF     C4 1597   2.743   2.534   0.520  0.3584 -0.9831  0.5025
   86THF     H1 1598   2.818   2.395   0.363  1.0211  0.9639 -2.9271
   86THF     H2 1599   2.827   2.564   0.321 -0.3137  0.2768  0.7391
   86THF     H3 1600   2.564   2.402   0.336  3.7609 -1.9360 -2.8420
   86THF     H4 1601   2.619   2.510   0.211 -3.9297  1.1541 -0.2655
   86THF     H5 1602   2.608   2.714   0.354  0.6108  0.8344  2.0157
   86THF     H6 1603   2.458   2.621   0.405  0.0060  0.4375 -0.7701
   86THF     H7 1604   2.833   2.585   0.556  0.6590 -0.8033 -0.4715
   86THF     H8 1605   2.737   2.443   0.581 -0.1379 -1.6531 -0.5198
   87THF     C1 1606   3.262   1.635   0.876 -0.7929  0.5799  0.1651
   87THF     C2 1607   3.159   1.718   0.946  0.0917  0.0563 -0.1045
   87THF     C3 1608   3.131   1.630   1.074  0.4462  0.0251  0.1735
   87THF     O1 1609   3.259   1.577   1.107 -0.1220 -1.0022  0.4334
   87THF     C4 1610   3.324   1.543   0.986 -0.1317 -0.0712 -0.6292
   87THF     H1 1611   3.220   1.576   0.794 -0.1112 -0.4523  0.5540
   87THF     H2 1612   3.335   1.708   0.839 -0.3724  0.9118  1.6179
   87THF     H3 1613   3.067   1.741   0.892 -0.8590  0.4505  1.6777
   87THF     H4 1614   3.200   1.816   0.971  1.2530  0.1040 -2.0521
   87THF     H5 1615   3.087   1.689   1.155  0.1127  0.0693 -0.0369
   87THF     H6 1616   3.065   1.545   1.054  1.0536 -0.8957  1.9696
   87THF     H7 1617   3.433   1.553   0.978  0.0959 -3.0988 -1.6888
   87THF     H8 1618   3.301   1.438   0.966  0.3635 -0.3780  0.3970
   88THF     C1 1619   2.982   0.753   1.471  0.6161 -0.2949  0.1014
   88THF     C2 1620   2.862   0.709   1.550 -0.1257 -0.4116  0.3438
   88THF     C3 1621   2.772   0.839   1.553 -0.7242 -1.0833  0.0566
   88THF     O1 1622   2.874   0.933   1.585  0.2314  0.0496  0.6363
   88THF     C4 1623   2.984   0.898   1.494 -0.2387  0.6104 -0.1060
   88THF     H1 1624   3.076   0.706   1.504  1.5302  1.2147 -0.3016
   88THF     H2 1625   2.986   0.727   1.364  2.2923 -2.9061  0.7357
   88THF     H3 1626   2.897   0.689   1.652  1.4049  1.5169  0.2229
   88THF     H4 1627   2.813   0.619   1.513  1.6431 -1.6645  0.9688
   88THF     H5 1628   2.727   0.875   1.459  0.7161 -0.0888 -0.2677
   88THF     H6 1629   2.685   0.837   1.620  0.4399 -0.9354  1.5799
   88THF     H7 1630   2.969   0.950   1.399  1.9725 -1.9406 -1.9356
   88THF     H8 1631   3.077   0.932   1.541 -0.6399 -0.2309  1.3502
   89THF     C1 1632   1.798   2.511   0.966 -0.2729 -0.2885  0.6532
   89THF     C2 1633   1.755   2.430   0.841 -0.0158 -0.2085 -0.5946
   89THF     C3 1634   1.843   2.309   0.861 -0.0662 -0.2021 -0.1416
   89THF     O1 1635   1.972   2.372   0.888 -0.1113 -0.3414 -0.5397
   89THF     C4 1636   1.947   2.467   0.996  0.9209 -0.1973  0.5725
   89THF     H1 1637   1.793   2.616   0.934 -2.8670 -0.7441 -0.5783
   89THF     H2 1638   1.747   2.485   1.059  0.3587 -1.3298  0.7174
   89THF     H3 1639   1.778   2.484   0.749  1.3833 -0.9389 -0.6866
   89THF     H4 1640   1.648   2.411   0.851  0.0258  0.2486  0.8832
   89THF     H5 1641   1.812   2.242   0.942 -1.1916 -0.3790 -0.7074
   89THF     H6 1642   1.859   2.250   0.770  2.3605  0.5126 -0.2181
   89THF     H7 1643   1.957   2.410   1.090 -0.6047 -1.3199  0.0892
   89THF     H8 1644   2.010   2.556   0.998  1.1925 -0.3429 -1.2512
   90THF     C1 1645   0.647   1.255   0.579 -0.2192 -0.3638  0.6877
   90THF     C2 1646   0.625   1.209   0.431 -0.0630 -0.5875  0.0356
   90THF     C3 1647   0.641   1.050   0.426  0.6927  0.4144 -0.2763
   90THF     O1 1648   0.704   1.023   0.556  0.2664  0.5889 -0.1746
   90THF     C4 1649   0.648   1.120   0.648  0.4222  0.2002  0.6140
   90THF     H1 1650   0.738   1.313   0.598 -0.1783  0.3186 -1.5008
   90THF     H2 1651   0.558   1.311   0.608 -0.3337  0.4759 -1.2486
   90THF     H3 1652   0.704   1.243   0.364 -0.8836 -1.8500 -1.6280
   90THF     H4 1653   0.525   1.233   0.392 -0.4284 -1.2763  0.5293
   90THF     H5 1654   0.538   1.014   0.438  0.8690  0.3027  1.0693
   90THF     H6 1655   0.693   0.999   0.344 -0.1502 -1.3039  0.2290
   90THF     H7 1656   0.543   1.093   0.664 -0.1847  1.2758 -1.3968
   90THF     H8 1657   0.703   1.123   0.743 -0.0129  1.5661  0.8368
   91THF     C1 1658   1.162   2.903   0.435  0.1575 -0.2677  0.2529
   91THF     C2 1659   1.217   2.931   0.293  0.1032  0.7642 -0.0388
   91THF     C3 1660   1.366   2.893   0.314  0.5461  0.8627  0.4194
   91THF     O1 1661   1.391   2.959   0.440  0.3584  0.7002  0.1422
   91THF     C4 1662   1.271   2.982   0.514  0.0823  0.4822  0.0154
   91THF     H1 1663   1.066   2.954   0.448  1.7263  3.5028 -1.9666
   91THF     H2 1664   1.158   2.795   0.450  1.2682 -0.3078  0.2851
   91THF     H3 1665   1.214   3.037   0.264  2.2087  0.8291 -0.0368
   91THF     H4 1666   1.168   2.881   0.209  1.1473 -0.5147  0.1072
   91THF     H5 1667   1.371   2.784   0.325 -2.3018  0.7965  1.4693
   91THF     H6 1668   1.439   2.926   0.240 -0.1454  1.5473  0.0375
   91THF     H7 1669   1.276   2.942   0.616 -0.8557 -0.0696 -0.1465
   91THF     H8 1670   1.255   3.089   0.526  0.1169  0.6278 -1.1516
   92THF     C1 1671   1.742   3.256   1.379 -0.2347 -0.3419 -0.2641
   92THF     C2 1672   1.779   3.391   1.437 -0.1214  0.9365  0.4455
   92THF     C3 1673   1.888   3.353   1.532 -0.5198 -0.0814  0.2360
   92THF     O1 1674   1.863   3.219   1.573  0.2541 -0.4540  0.4533
   92THF     C4 1675   1.742   3.177   1.510  0.0134  0.2153 -0.2040
   92THF     H1 1676   1.644   3.243   1.333 -0.0838  0.5563 -0.8732
   92THF     H2 1677   1.816   3.212   1.311 -0.1755 -0.6462 -0.0012
   92THF     H3 1678   1.694   3.434   1.490  0.1471  2.7066 -0.5056
   92THF     H4 1679   1.805   3.462   1.357  1.1857 -1.8652 -1.6888
   92THF     H5 1680   1.983   3.362   1.477 -2.0088 -0.4842 -2.4755
   92THF     H6 1681   1.889   3.418   1.620  0.8790 -0.8908  0.8434
   92THF     H7 1682   1.731   3.069   1.495  1.4519 -0.0770  0.6693
   92THF     H8 1683   1.657   3.202   1.575 -0.1745 -1.1272  0.0981
   93THF     C1 1684   1.947   0.238   0.562  0.7708 -0.3523 -0.7530
   93THF     C2 1685   1.855   0.319   0.659  0.4914 -0.6678 -0.5070
   93THF     C3 1686   1.794   0.198   0.733 -0.4972  0.5271 -0.4041
   93THF     O1 1687   1.914   0.133   0.774  0.2664 -0.1407 -0.1375
   93THF     C4 1688   1.995   0.122   0.655  0.0834 -0.1797  0.4129
   93THF     H1 1689   1.887   0.200   0.480 -1.3695 -0.3981  0.8011
   93THF     H2 1690   2.037   0.286   0.522 -0.7559  2.0668 -1.4050
   93THF     H3 1691   1.774   0.372   0.608  0.8630  0.3941 -0.0106
   93THF     H4 1692   1.902   0.386   0.731 -0.7611  1.0233 -1.2319
   93THF     H5 1693   1.741   0.226   0.825  3.2642  1.1500  1.6404
   93THF     H6 1694   1.737   0.127   0.671 -1.4968  0.3984  0.6372
   93THF     H7 1695   2.102   0.129   0.679 -0.2030 -0.6005  1.9170
   93THF     H8 1696   1.981   0.023   0.609  0.1317  0.9512 -2.0670
   94THF     C1 1697   1.199   1.755   0.406 -0.5654 -0.1893 -0.0536
   94THF     C2 1698   1.223   1.603   0.431  0.8938 -0.1699 -0.3485
   94THF     C3 1699   1.381   1.602   0.448 -0.0593  0.2229 -0.2494
   94THF     O1 1700   1.417   1.747   0.444  0.2383  0.1932 -0.4597
   94THF     C4 1701   1.336   1.804   0.341 -0.4221 -0.4108 -0.1349
   94THF     H1 1702   1.104   1.772   0.354 -1.5069 -0.1635  1.6429
   94THF     H2 1703   1.188   1.801   0.505  1.1450 -2.7054  1.3697
   94THF     H3 1704   1.187   1.532   0.356 -0.0505 -0.3089  0.2394
   94THF     H4 1705   1.191   1.578   0.533  0.4369  0.1157 -0.4226
   94THF     H5 1706   1.401   1.563   0.548 -1.0285  2.8150  0.9963
   94THF     H6 1707   1.437   1.550   0.369  1.0820  0.1806  0.5893
   94THF     H7 1708   1.356   1.912   0.341 -2.0589 -0.0629  2.5166
   94THF     H8 1709   1.367   1.760   0.245  1.3141  1.4690 -0.4866
   95THF     C1 1710   3.006   0.543   0.476  0.0775 -0.5519  0.2097
   95THF     C2 1711   3.134   0.562   0.551 -0.4228  0.0987  0.5579
   95THF     C3 1712   3.210   0.428   0.518  0.0545 -0.4296 -0.4858
   95THF     O1 1713   3.134   0.359   0.416 -0.1505 -0.3837 -0.0296
   95THF     C4 1714   3.002   0.385   0.455 -0.2609 -0.5264  0.0694
   95THF     H1 1715   2.916   0.580   0.527  1.0476  1.2043  0.7177
   95THF     H2 1716   3.019   0.591   0.379  2.5797  0.0506  0.8110
   95THF     H3 1717   3.113   0.575   0.658 -2.0880  0.6592  0.1900
   95THF     H4 1718   3.181   0.650   0.506  1.5565 -0.8442  0.7412
   95THF     H5 1719   3.307   0.455   0.474  0.5229 -1.3468 -0.0422
   95THF     H6 1720   3.214   0.358   0.603 -1.5021 -1.0460 -0.8972
   95THF     H7 1721   2.927   0.349   0.384  0.0503 -1.3726  0.1619
   95THF     H8 1722   2.986   0.346   0.557  0.9779  0.4505  0.6478
   96THF     C1 1723   2.253   1.774   0.559 -0.3062  0.0806 -0.0817
   96THF     C2 1724   2.342   1.770   0.694 -0.0900  0.0431 -0.0922
   96THF     C3 1725   2.293   1.645   0.759 -0.1715 -0.6641  0.2370
   96THF     O1 1726   2.247   1.564   0.651  0.0988  0.2623  0.5625
   96THF     C4 1727   2.171   1.645   0.564 -0.0810 -0.2018  0.0127
   96THF     H1 1728   2.187   1.861   0.545 -0.6064  0.1731  1.6690
   96THF     H2 1729   2.319   1.776   0.472  0.8341 -1.2155  0.7480
   96THF     H3 1730   2.326   1.861   0.753 -1.0856 -1.2021  1.6048
   96THF     H4 1731   2.452   1.764   0.692 -0.0593  0.6849 -0.4147
   96THF     H5 1732   2.366   1.585   0.814 -0.3007 -1.8638 -0.8743
   96THF     H6 1733   2.211   1.675   0.826  0.9329 -1.4873  1.9960
   96THF     H7 1734   2.170   1.592   0.468  1.7473 -1.1945  0.5090
   96THF     H8 1735   2.070   1.658   0.605  0.1385  0.3369  0.3826
   97THF     C1 1736   0.454   1.916   0.848  0.1627  0.2774 -0.2571
   97THF     C2 1737   0.342   1.806   0.824 -0.3347 -0.5513 -0.3442
   97THF     C3 1738   0.266   1.824   0.961 -0.3681  0.0944 -0.7218
   97THF     O1 1739   0.270   1.963   0.981  0.8678  0.3254 -0.0549
   97THF     C4 1740   0.405   2.006   0.958  0.0328  0.3228  0.1299
   97THF     H1 1741   0.547   1.870   0.883 -0.1331 -0.8429 -0.8963
   97THF     H2 1742   0.464   1.973   0.755 -2.0013  0.3782 -0.4663
   97THF     H3 1743   0.383   1.707   0.800  0.6733  0.2844 -2.2020
   97THF     H4 1744   0.276   1.828   0.739  2.4151  2.2657 -1.8256
   97THF     H5 1745   0.164   1.785   0.961 -0.5356  0.5199  0.3870
   97THF     H6 1746   0.320   1.777   1.044  1.0547  1.9149 -0.5803
   97THF     H7 1747   0.412   2.115   0.947 -1.8422  0.2926 -1.5805
   97THF     H8 1748   0.461   1.972   1.045 -0.0338  0.9528  0.4249
   98THF     C1 1749   2.213   2.663   0.732  0.2650 -0.7086 -0.2472
   98THF     C2 1750   2.071   2.700   0.742  0.2428  0.0294  0.7108
   98THF     C3 1751   2.059   2.818   0.644 -0.5770 -0.2342  0.7410
   98THF     O1 1752   2.147   2.784   0.530 -0.3621 -0.1200  0.2715
   98THF     C4 1753   2.251   2.693   0.584  0.2364 -0.0592  0.3277
   98THF     H1 1754   2.273   2.727   0.796  0.5672 -2.5861  1.3887
   98THF     H2 1755   2.233   2.558   0.759  0.2541 -0.2392  1.6216
   98THF     H3 1756   2.041   2.727   0.844  0.2442  1.4850  0.3319
   98THF     H4 1757   2.016   2.613   0.704  0.1975  0.7043 -0.8274
   98THF     H5 1758   1.961   2.834   0.597  0.0229  4.1606  0.7116
   98THF     H6 1759   2.091   2.915   0.685  0.1942  0.7123 -1.9630
   98THF     H7 1760   2.256   2.601   0.524  1.5164 -1.8674  3.1080
   98THF     H8 1761   2.352   2.732   0.565  0.1324 -1.2134 -2.9653
   99THF     C1 1762   0.961   0.018   1.151 -0.1942  0.3876  0.1963
   99THF     C2 1763   0.839   0.102   1.112 -0.1746  0.3930  0.0357
   99THF     C3 1764   0.753  -0.017   1.065 -0.0922 -1.5612  0.0891
   99THF     O1 1765   0.764  -0.111   1.183 -0.2486 -0.5224 -0.1284
   99THF     C4 1766   0.904  -0.092   1.232  0.7916 -0.2214  0.3764
   99THF     H1 1767   1.007  -0.009   1.055 -1.6472  0.2570 -0.4878
   99THF     H2 1768   1.024   0.083   1.212 -0.6402  0.4582  0.5894
   99THF     H3 1769   0.861   0.170   1.029  0.1820  1.1167  0.7109
   99THF     H4 1770   0.785   0.156   1.191 -1.3095 -1.5127  0.5934
   99THF     H5 1771   0.652   0.023   1.050  0.4861 -0.2439 -0.3754
   99THF     H6 1772   0.793  -0.063   0.974 -1.9781 -0.1443 -1.5123
   99THF     H7 1773   0.893  -0.074   1.340 -0.0456 -1.0811  0.4469
   99THF     H8 1774   0.954  -0.189   1.226 -0.1346 -0.5259 -3.9231
  100THF     C1 1775   2.653   1.974   0.900  0.4047  1.1012 -0.0425
  100THF     C2 1776   2.719   2.020   1.038  0.0542 -0.4453  0.1054
  100THF     C3 1777   2.830   1.910   1.064 -1.1451 -0.9540  0.4378
  100THF     O1 1778   2.798   1.805   0.972 -0.5377 -0.5997  0.0549
  100THF     C4 1779   2.756   1.878   0.853 -0.0917  0.3954 -0.7725
  100THF     H1 1780   2.567   1.913   0.931  0.1756  1.6514  0.4316
  100THF     H2 1781   2.617   2.060   0.842  0.6880  2.1489  1.3039
  100THF     H3 1782   2.647   2.046   1.116 -0.0424 -4.3251  1.4144
  100THF     H4 1783   2.778   2.108   1.010  0.3699 -1.0836 -1.2926
  100THF     H5 1784   2.925   1.955   1.032 -1.5668  0.0467  0.5812
  100THF     H6 1785   2.829   1.869   1.166 -0.7451  0.6396  1.1033
  100THF     H7 1786   2.840   1.935   0.811  0.6492  0.4373  0.7440
  100THF     H8 1787   2.732   1.804   0.775  2.0486  0.7154 -1.7517
  101THF     C1 1788   2.230   0.890   3.782 -0.3271 -0.6727  0.1622
  101THF     C2 1789   2.358   0.959   3.836  0.4757  0.0050 -0.5789
  101THF     C3 1790   2.419   0.846   3.938 -0.0801  0.6922  0.5004
  101THF     O1 1791   2.298   0.821   4.008 -0.0592  0.6729  0.0247
  101THF     C4 1792   2.174   0.831   3.925  0.0275  0.6030  0.5870
  101THF     H1 1793   2.162   0.960   3.732 -0.1930  0.7600  1.9242
  101THF     H2 1794   2.243   0.810   3.709 -0.9089 -0.0556 -0.6364
  101THF     H3 1795   2.337   1.047   3.898  1.6423  0.1627 -0.3950
  101THF     H4 1796   2.427   0.995   3.759 -0.0871  0.6637 -0.7789
  101THF     H5 1797   2.439   0.751   3.886  1.0918  1.4050 -0.3929
  101THF     H6 1798   2.498   0.881   4.005  0.9360  0.0183 -0.3240
  101THF     H7 1799   2.126   0.733   3.914  0.9924  0.4575 -2.6021
  101THF     H8 1800   2.108   0.903   3.975  1.1356  0.5058  2.2408
  102THF     C1 1801   2.602   0.855   0.968 -0.8503  0.3916  0.6042
  102THF     C2 1802   2.543   0.861   1.115 -0.3423  0.4810 -0.0685
  102THF     C3 1803   2.614   0.989   1.172 -0.5137 -0.2942 -0.4483
  102THF     O1 1804   2.594   1.079   1.063 -0.4447 -0.1736  0.2275
  102THF     C4 1805   2.615   1.014   0.940  0.5366  0.4298  0.1741
  102THF     H1 1806   2.701   0.808   0.973 -0.8783  0.0094 -1.7825
  102THF     H2 1807   2.542   0.807   0.891  1.4448 -1.1110 -0.3278
  102THF     H3 1808   2.562   0.775   1.179 -1.0196 -1.8675 -2.9376
  102THF     H4 1809   2.436   0.878   1.101 -0.0087  2.9518  0.0669
  102THF     H5 1810   2.563   1.028   1.261  1.5845  1.1816  0.1437
  102THF     H6 1811   2.722   0.976   1.188 -0.6676 -0.9244  0.1072
  102THF     H7 1812   2.534   1.047   0.875  1.8010 -0.1047 -1.7207
  102THF     H8 1813   2.711   1.048   0.899  0.0044  0.8196 -0.7691
  103THF     C1 1814   1.040   1.671   3.785 -0.4425 -0.7748 -0.8544
  103THF     C2 1815   1.150   1.563   3.800  0.1648  0.0263  0.0730
  103THF     C3 1816   1.073   1.438   3.841 -0.4683 -0.5622 -0.2675
  103THF     O1 1817   0.938   1.473   3.858 -0.0704 -0.0095 -0.1558
  103THF     C4 1818   0.917   1.586   3.773  0.2829  0.0393 -0.2935
  103THF     H1 1819   1.040   1.736   3.874 -0.8848 -0.6063 -0.9714
  103THF     H2 1820   1.047   1.733   3.695 -0.9567  1.7722  0.7877
  103THF     H3 1821   1.226   1.591   3.874 -0.9419 -0.8530  1.5738
  103THF     H4 1822   1.205   1.550   3.706  0.7691  2.4350  0.0667
  103THF     H5 1823   1.088   1.363   3.762  3.1251 -1.5881  1.2627
  103THF     H6 1824   1.117   1.401   3.935 -0.9886 -2.5997 -0.8078
  103THF     H7 1825   0.892   1.545   3.674  1.2536  1.8962 -1.3393
  103THF     H8 1826   0.832   1.648   3.805  1.7706  1.4044  1.1517
  104THF     C1 1827   1.913   2.100   3.781 -0.0891  0.3162  0.1336
  104THF     C2 1828   1.811   2.050   3.886  0.1956  1.0286  0.2098
  104THF     C3 1829   1.767   2.180   3.961  0.1191 -0.5025 -0.3783
  104THF     O1 1830   1.903   2.237   3.977  0.0164 -0.7603 -0.5005
  104THF     C4 1831   1.977   2.220   3.857  0.3339  0.6311 -0.0915
  104THF     H1 1832   1.982   2.029   3.734  1.8528  1.5690  1.0240
  104THF     H2 1833   1.855   2.136   3.696 -0.0590 -0.5953 -0.2798
  104THF     H3 1834   1.867   1.980   3.948  1.7142  1.3302 -0.7759
  104THF     H4 1835   1.718   2.014   3.840  0.1027  1.2076  0.2552
  104THF     H5 1836   1.702   2.247   3.903 -2.8125 -3.8035 -1.0559
  104THF     H6 1837   1.729   2.168   4.063 -0.3590  0.5913 -0.4184
  104THF     H7 1838   1.959   2.315   3.806  2.6012  2.1970  1.8686
  104THF     H8 1839   2.085   2.210   3.876  0.0076 -1.5292  0.8159
  105THF     C1 1840   1.474   2.117   1.075 -0.5227  0.9645 -0.5965
  105THF     C2 1841   1.421   2.212   0.979 -0.0944 -0.0904  0.0605
  105THF     C3 1842   1.476   2.160   0.844  0.4100 -0.6477  0.4304
  105THF     O1 1843   1.602   2.119   0.881 -0.4147  0.1874  0.4090
  105THF     C4 1844   1.590   2.056   1.008 -0.7961  1.1726 -0.5292
  105THF     H1 1845   1.516   2.178   1.156  0.4648  1.4103 -1.4334
  105THF     H2 1846   1.404   2.044   1.117 -1.3575  1.4391 -1.1442
  105THF     H3 1847   1.451   2.313   1.008 -0.1584 -0.0866  0.1122
  105THF     H4 1848   1.312   2.220   0.983 -0.0967 -0.0970  0.0017
  105THF     H5 1849   1.418   2.076   0.805 -2.5478  1.5741 -0.1425
  105THF     H6 1850   1.482   2.241   0.771 -1.4928  0.9926  2.0273
  105THF     H7 1851   1.581   1.949   0.987  0.2691  1.1885 -1.1162
  105THF     H8 1852   1.687   2.060   1.060 -2.4285  1.8580  2.5496
  106THF     C1 1853   2.140   0.128   3.126 -0.1152  0.4889  0.2440
  106THF     C2 1854   2.231   0.246   3.111 -0.1355  0.0824  0.2126
  106THF     C3 1855   2.332   0.221   2.992  0.0946 -0.0808  0.5213
  106THF     O1 1856   2.307   0.082   2.966  0.3600 -0.7928  0.4142
  106THF     C4 1857   2.169   0.055   2.994  0.5107 -0.1714  0.5016
  106THF     H1 1858   2.177   0.070   3.212 -0.7986  0.9058  0.8227
  106THF     H2 1859   2.034   0.144   3.147  0.4141 -0.0864  3.6974
  106THF     H3 1860   2.288   0.273   3.201  1.2412 -2.2872  0.0942
  106THF     H4 1861   2.166   0.330   3.086 -0.1979 -0.2884 -0.8711
  106THF     H5 1862   2.301   0.276   2.902  0.5909 -0.2328  0.2617
  106THF     H6 1863   2.438   0.236   3.015  0.6688 -0.7617 -1.6036
  106THF     H7 1864   2.105   0.087   2.911 -0.6321 -0.2076  1.3536
  106THF     H8 1865   2.148  -0.051   3.007  1.0124 -0.5580 -1.7215
  107THF     C1 1866   3.402   0.955   1.055  0.1658  0.2591 -0.1866
  107THF     C2 1867   3.284   1.051   1.024 -0.5404  0.1072 -0.1876
  107THF     C3 1868   3.263   1.030   0.880  0.2148  0.2217  0.9848
  107THF     O1 1869   3.285   0.890   0.857 -0.2779 -0.4405 -0.5878
  107THF     C4 1870   3.370   0.835   0.958 -0.1652 -0.0952 -0.4802
  107THF     H1 1871   3.497   0.997   1.018 -1.5110  3.2868 -1.2640
  107THF     H2 1872   3.413   0.931   1.161  1.2583  0.9497 -0.1235
  107THF     H3 1873   3.302   1.157   1.047 -1.1515  0.0417  0.6332
  107THF     H4 1874   3.184   1.022   1.058  0.5567 -2.4022  1.0827
  107THF     H5 1875   3.163   1.057   0.844  0.3378  3.5039  2.9085
  107THF     H6 1876   3.329   1.097   0.824 -1.9973  0.8915 -0.8557
  107THF     H7 1877   3.310   0.762   1.014 -0.7323  1.1031  0.5126
  107THF     H8 1878   3.456   0.788   0.910 -1.4594 -2.6083 -0.4450
  108THF     C1 1879   1.434   2.315   0.320  0.3791  0.0975  0.6481
  108THF     C2 1880   1.312   2.408   0.345 -0.2661 -0.8456  0.2711
  108THF     C3 1881   1.331   2.458   0.489  0.0283 -0.2699 -0.0280
  108THF     O1 1882   1.370   2.336   0.549  0.2317 -0.2735  0.0543
  108THF     C4 1883   1.475   2.286   0.462 -0.1934 -0.4792  0.0776
  108THF     H1 1884   1.406   2.221   0.271  1.2781 -1.1354  2.4307
  108THF     H2 1885   1.518   2.370   0.277  1.5868 -0.8824  1.7079
  108THF     H3 1886   1.218   2.354   0.328 -1.1310 -0.1634  2.6358
  108THF     H4 1887   1.315   2.487   0.269  0.0736 -1.5275 -0.4332
  108THF     H5 1888   1.406   2.538   0.496 -0.2285 -0.0520  0.2755
  108THF     H6 1889   1.241   2.497   0.538  1.2215  0.2818  1.7720
  108THF     H7 1890   1.567   2.346   0.468  0.4382 -0.9970 -3.6221
  108THF     H8 1891   1.482   2.177   0.474 -1.4571 -0.4437  1.2840
  109THF     C1 1892   2.572   2.570   0.902  0.3838 -0.2518 -0.6540
  109THF     C2 1893   2.486   2.507   1.009 -0.9520 -0.2110 -0.0849
  109THF     C3 1894   2.563   2.370   1.037 -0.2799 -1.0018  0.2806
  109THF     O1 1895   2.579   2.323   0.904 -0.1681  0.8723  0.7031
  109THF     C4 1896   2.621   2.446   0.825 -0.0755  0.5080  0.1869
  109THF     H1 1897   2.509   2.640   0.846  1.1193  2.2219  1.5181
  109THF     H2 1898   2.659   2.627   0.934 -0.4703  1.4379 -1.2964
  109THF     H3 1899   2.383   2.491   0.976 -0.0255 -2.9498 -1.8549
  109THF     H4 1900   2.468   2.563   1.102  0.3187  0.1646 -0.0551
  109THF     H5 1901   2.655   2.389   1.094 -0.0757  2.5163 -1.1214
  109THF     H6 1902   2.492   2.318   1.103 -2.8741  0.7914 -0.9818
  109THF     H7 1903   2.729   2.438   0.804 -0.0972  0.1649  0.1884
  109THF     H8 1904   2.557   2.448   0.736 -0.3256  0.9302  0.3757
  110THF     C1 1905   0.049   2.721   1.029  0.0940 -0.5775  0.2603
  110THF     C2 1906   0.062   2.854   1.111 -0.5163 -0.0370  0.1560
  110THF     C3 1907  -0.078   2.911   1.097 -0.2749 -0.8205  0.0542
  110THF     O1 1908  -0.102   2.881   0.956  0.8484 -1.1584 -0.5980
  110THF     C4 1909  -0.079   2.745   0.941 -0.0246  0.0889  0.7750
  110THF     H1 1910   0.134   2.705   0.961  0.6558 -0.0910  0.8367
  110THF     H2 1911   0.045   2.629   1.088  0.8096 -1.2742 -0.7643
  110THF     H3 1912   0.142   2.916   1.068 -0.9090 -0.4753 -1.2311
  110THF     H4 1913   0.089   2.851   1.217 -1.3386 -0.4992  0.3543
  110THF     H5 1914  -0.159   2.858   1.149 -0.1414  0.2771  1.4198
  110THF     H6 1915  -0.091   3.019   1.113  0.4431 -0.5965 -0.8389
  110THF     H7 1916  -0.172   2.694   0.969  1.3695 -2.6035  0.6353
  110THF     H8 1917  -0.067   2.717   0.835  0.4720  1.4605  0.4608
  111THF     C1 1918   2.915   0.404   1.050  0.2428 -0.1352 -0.3152
  111THF     C2 1919   2.933   0.401   0.895 -0.2993 -0.0954 -0.3911
  111THF     C3 1920   2.842   0.516   0.856 -0.3290  0.3283 -0.4169
  111THF     O1 1921   2.727   0.489   0.934 -0.1409 -0.5895 -0.5633
  111THF     C4 1922   2.771   0.473   1.070 -0.6787 -0.1785  0.2967
  111THF     H1 1923   2.914   0.303   1.094  0.3346  0.1361  0.3225
  111THF     H2 1924   2.997   0.460   1.095 -1.3108  0.2251  2.2034
  111THF     H3 1925   2.894   0.304   0.862 -0.8504 -0.3090  0.8721
  111THF     H4 1926   3.036   0.426   0.865 -0.4505  1.3350  0.2348
  111THF     H5 1927   2.880   0.614   0.887 -0.0322  0.2214 -0.4503
  111THF     H6 1928   2.806   0.519   0.752  1.6458 -0.5151 -1.1459
  111THF     H7 1929   2.785   0.577   1.102  2.5654 -0.6128  0.5033
  111THF     H8 1930   2.699   0.421   1.134 -0.0829 -0.6968  0.5499
  112THF     C1 1931   2.500   0.450   3.594  0.0160  0.5276  0.0243
  112THF     C2 1932   2.427   0.344   3.504  0.5975  0.0195 -0.6029
  112THF     C3 1933   2.282   0.332   3.571 -0.2579  0.2482  0.0318
  112THF     O1 1934   2.261   0.460   3.643  0.2721  0.4456  0.2676
  112THF     C4 1935   2.375   0.545   3.628  0.6483 -0.6155 -0.1532
  112THF     H1 1936   2.545   0.405   3.684 -3.7618 -0.7925  1.3310
  112THF     H2 1937   2.577   0.504   3.538 -0.8154  1.0218 -0.6406
  112THF     H3 1938   2.482   0.249   3.507  0.3836 -0.1027 -0.4648
  112THF     H4 1939   2.429   0.374   3.399  0.0784 -1.3761 -1.0242
  112THF     H5 1940   2.203   0.311   3.498  0.7864 -0.8498 -0.8050
  112THF     H6 1941   2.276   0.252   3.646 -0.4380 -0.6752 -0.9624
  112THF     H7 1942   2.358   0.619   3.549  0.7921  0.0996  0.4802
  112THF     H8 1943   2.400   0.594   3.723 -0.7742 -0.0473 -0.0583
  113THF     C1 1944   0.212   3.389   1.012  0.0400 -0.0408 -0.4492
  113THF     C2 1945   0.349   3.341   0.969 -0.1563 -0.5325  0.0103
  113THF     C3 1946   0.410   3.274   1.093 -0.4462  0.8624 -0.5911
  113THF     O1 1947   0.299   3.206   1.162 -0.5523 -0.1732  0.4057
  113THF     C4 1948   0.177   3.272   1.118  0.1232  0.2554  0.4310
  113THF     H1 1949   0.212   3.493   1.047  1.9536  0.3733 -1.5967
  113THF     H2 1950   0.135   3.392   0.934  0.0335 -0.1940 -0.4475
  113THF     H3 1951   0.405   3.431   0.940  2.3960 -0.8860  3.5120
  113THF     H4 1952   0.339   3.275   0.882 -1.1399 -0.7827  0.3079
  113THF     H5 1953   0.492   3.202   1.084 -0.7319  0.5567 -0.7629
  113THF     H6 1954   0.448   3.352   1.160  0.7140  0.1631 -0.4234
  113THF     H7 1955   0.114   3.194   1.073 -1.5185  1.4070  0.7262
  113THF     H8 1956   0.130   3.319   1.204 -2.1698 -1.5449  0.2324
  114THF     C1 1957   3.303   0.133   3.653  0.2606 -0.4862 -0.0271
  114THF     C2 1958   3.308  -0.023   3.636 -0.3068 -0.1824 -0.3839
  114THF     C3 1959   3.192  -0.071   3.718 -0.8636 -0.4910 -0.0379
  114THF     O1 1960   3.127   0.048   3.759 -0.0991  0.0533  0.5615
  114THF     C4 1961   3.153   0.153   3.663  0.5339 -0.3928 -0.5921
  114THF     H1 1962   3.361   0.174   3.736  3.1324 -1.7326 -1.3555
  114THF     H2 1963   3.344   0.191   3.570 -2.0660  1.5268  0.1704
  114THF     H3 1964   3.405  -0.068   3.658  0.2012  0.7057 -0.7882
  114THF     H4 1965   3.290  -0.046   3.530  3.1622  0.8244 -1.2422
  114THF     H5 1966   3.125  -0.139   3.663 -1.8686  1.5353 -1.3674
  114THF     H6 1967   3.236  -0.121   3.805  2.4177 -5.4658 -4.2190
  114THF     H7 1968   3.101   0.131   3.569  0.7008  1.7776 -1.2160
  114THF     H8 1969   3.120   0.250   3.702 -0.1526 -0.0892 -1.8799
  115THF     C1 1970   3.123   3.016   3.795 -0.5845 -0.1491  0.2565
  115THF     C2 1971   3.022   3.088   3.886  0.1663 -0.3859  0.1290
  115THF     C3 1972   3.098   3.099   4.026  0.0298  0.3814  0.2321
  115THF     O1 1973   3.199   3.001   4.012  0.0347 -0.6332  0.1030
  115THF     C4 1974   3.246   3.016   3.879  0.2223 -0.0436 -0.0341
  115THF     H1 1975   3.101   2.915   3.758  0.5685 -0.4396  0.3345
  115THF     H2 1976   3.136   3.072   3.702 -0.9847  0.7482  0.7425
  115THF     H3 1977   2.922   3.044   3.894 -0.1077  0.4708  1.6103
  115THF     H4 1978   3.019   3.189   3.843 -0.2896 -0.4422  0.0277
  115THF     H5 1979   3.153   3.192   4.043  1.9578 -0.7125  0.2340
  115THF     H6 1980   3.036   3.080   4.114 -0.0318 -1.8654 -0.2607
  115THF     H7 1981   3.288   3.117   3.872  0.2155  0.1651  2.4575
  115THF     H8 1982   3.329   2.949   3.855  0.5172  0.4458 -0.3977
  116THF     C1 1983   2.992   0.291   1.403  0.1141 -0.0946  0.2212
  116THF     C2 1984   3.008   0.265   1.562  0.1983  0.5010 -0.2319
  116THF     C3 1985   3.050   0.112   1.576  0.5081 -0.0976  0.8924
  116THF     O1 1986   3.045   0.065   1.446  0.3611  0.2829 -0.2149
  116THF     C4 1987   3.080   0.174   1.356 -0.4085  0.0765 -0.5935
  116THF     H1 1988   2.887   0.287   1.373  0.5860 -0.2755 -1.4695
  116THF     H2 1989   3.035   0.389   1.379 -2.3493  0.6491 -1.2736
  116THF     H3 1990   2.917   0.284   1.620 -0.3359 -0.0727 -0.8737
  116THF     H4 1991   3.087   0.324   1.608  0.2371 -1.1941  2.0003
  116THF     H5 1992   3.153   0.109   1.614  0.0060  0.8339  2.3755
  116THF     H6 1993   2.977   0.047   1.628 -0.4498 -0.4835 -0.8804
  116THF     H7 1994   3.189   0.186   1.367 -0.6478  0.1345  2.3220
  116THF     H8 1995   3.062   0.148   1.251 -2.3383 -0.8494 -0.0558
  117THF     C1 1996   1.156   3.236   1.503  1.0982  0.0712 -0.0177
  117THF     C2 1997   1.245   3.284   1.382 -0.0080 -0.0593  0.2179
  117THF     C3 1998   1.300   3.147   1.329  0.3592  0.3899 -0.1826
  117THF     O1 1999   1.307   3.061   1.443 -0.0554 -0.0405 -0.3454
  117THF     C4 2000   1.254   3.128   1.561  0.8169  0.7337  0.0190
  117THF     H1 2001   1.135   3.319   1.572 -2.4971 -0.7250 -0.0284
  117THF     H2 2002   1.060   3.195   1.469  0.4546 -1.1167  3.0673
  117THF     H3 2003   1.327   3.355   1.399  1.4105 -1.6597  0.2046
  117THF     H4 2004   1.182   3.332   1.306 -0.0312 -1.9478 -0.9672
  117THF     H5 2005   1.238   3.104   1.250  1.5530 -3.2935  0.7813
  117THF     H6 2006   1.396   3.164   1.280  0.6061  1.1413  0.5344
  117THF     H7 2007   1.204   3.049   1.617 -0.9205  0.9987 -1.1097
  117THF     H8 2008   1.341   3.173   1.610  1.6332 -0.8288  0.0344
  118THF     C1 2009   1.041   1.318   0.646 -0.7177  0.0428 -0.2599
  118THF     C2 2010   1.001   1.231   0.774  0.7110 -0.4770 -0.9811
  118THF     C3 2011   1.032   1.086   0.719  0.0195  0.4723  0.0365
  118THF     O1 2012   1.104   1.104   0.593 -0.7365 -0.6508 -0.4575
  118THF     C4 2013   1.046   1.222   0.533 -0.8163  0.5158 -0.2977
  118THF     H1 2014   0.965   1.394   0.625  0.9269  1.2111 -2.1682
  118THF     H2 2015   1.137   1.367   0.663 -0.3248 -0.4679 -1.0059
  118THF     H3 2016   0.895   1.252   0.797  1.1924  1.4146 -0.3797
  118THF     H4 2017   1.062   1.263   0.859 -0.9675 -0.2455  0.1646
  118THF     H5 2018   1.102   1.027   0.779 -0.5463  0.3788  0.6114
  118THF     H6 2019   0.938   1.030   0.709  0.1795 -0.1276  1.8124
  118THF     H7 2020   1.090   1.244   0.435 -0.1008 -0.2737 -0.1570
  118THF     H8 2021   0.938   1.202   0.520 -0.6026 -2.2345  1.8599
  119THF     C1 2022   2.920   2.907   0.991 -0.4905 -0.2952  0.1763
  119THF     C2 2023   2.919   2.861   1.139 -0.7372 -0.3585 -0.5805
  119THF     C3 2024   2.891   2.706   1.140 -0.1200  0.3852 -0.6518
  119THF     O1 2025   2.937   2.669   1.011 -0.1417  0.0445  0.8149
  119THF     C4 2026   2.907   2.773   0.917  0.6518 -0.9178 -0.3814
  119THF     H1 2027   2.836   2.973   0.968 -1.1861 -0.9452  0.8094
  119THF     H2 2028   3.011   2.953   0.951 -0.6819 -0.7486 -0.7970
  119THF     H3 2029   2.844   2.915   1.197 -0.9094 -0.3744 -0.7919
  119THF     H4 2030   3.019   2.875   1.182 -1.2182 -3.3210  1.6679
  119THF     H5 2031   2.943   2.651   1.219  0.5549 -0.1568 -1.4519
  119THF     H6 2032   2.784   2.680   1.142  0.4196 -1.8885  0.0065
  119THF     H7 2033   2.972   2.768   0.829 -0.5012  1.5069 -1.4399
  119THF     H8 2034   2.808   2.752   0.877  0.5303  0.3692 -0.7901
  120THF     C1 2035   0.018   0.697   1.509 -0.4162 -0.2138  0.0953
  120THF     C2 2036   0.171   0.678   1.490  0.2943 -0.5855 -0.6081
  120THF     C3 2037   0.178   0.668   1.339 -0.3266 -0.1680  0.5040
  120THF     O1 2038   0.051   0.644   1.280 -0.1723  0.2627 -0.0150
  120THF     C4 2039  -0.037   0.613   1.395 -0.1394  0.2046 -0.2665
  120THF     H1 2040  -0.018   0.666   1.607  0.4599  2.6916  1.3851
  120THF     H2 2041  -0.009   0.802   1.497  1.0924  0.4185  1.8822
  120THF     H3 2042   0.205   0.589   1.544  1.4820  0.7684  0.9015
  120THF     H4 2043   0.240   0.751   1.532 -2.8212  1.0078  1.9330
  120THF     H5 2044   0.220   0.751   1.282 -2.6248  0.4478 -0.3648
  120THF     H6 2045   0.242   0.581   1.318 -1.4638 -0.1037 -3.7832
  120THF     H7 2046  -0.140   0.645   1.377 -0.7587 -0.8132  1.2780
  120THF     H8 2047  -0.034   0.503   1.403 -1.8191  0.0187 -1.8658
  121THF     C1 2048   1.507   1.035   0.870 -0.1640  0.2680  0.0043
  121THF     C2 2049   1.466   1.102   1.004 -0.4695 -0.0020  0.4081
  121THF     C3 2050   1.472   1.246   0.965  0.3780  0.4623  0.1334
  121THF     O1 2051   1.417   1.255   0.835 -0.1269  0.1986 -0.3227
  121THF     C4 2052   1.477   1.147   0.766 -0.5046  0.5946  0.0096
  121THF     H1 2053   1.612   1.009   0.853 -0.4517 -0.3659 -0.8425
  121THF     H2 2054   1.450   0.943   0.851 -2.5198  1.6690  0.0827
  121THF     H3 2055   1.543   1.084   1.080 -2.5406  2.3000  3.1520
  121THF     H4 2056   1.363   1.077   1.031  0.3601 -0.3558  3.5052
  121THF     H5 2057   1.412   1.304   1.035 -2.8222 -1.2798 -1.0767
  121THF     H6 2058   1.577   1.280   0.967  0.0152  1.8302 -1.8473
  121THF     H7 2059   1.405   1.109   0.692  0.8818 -0.7838 -0.6365
  121THF     H8 2060   1.571   1.185   0.725  0.6279 -1.7863  0.3150
  122THF     C1 2061   0.458   2.653   0.044 -0.4236  0.2267 -0.0163
  122THF     C2 2062   0.529   2.784   0.091  0.3201 -0.6776  0.5084
  122THF     C3 2063   0.444   2.832   0.209 -0.4057 -0.3790  0.3424
  122THF     O1 2064   0.346   2.732   0.236 -0.5377 -0.6196  0.6284
  122THF     C4 2065   0.323   2.657   0.118  0.5465 -0.0524 -0.2356
  122THF     H1 2066   0.441   2.660  -0.064 -0.0190  1.8727  0.0169
  122THF     H2 2067   0.512   2.562   0.071 -0.2745  0.3589  0.1276
  122THF     H3 2068   0.530   2.861   0.013 -0.4272 -1.3190 -0.1535
  122THF     H4 2069   0.633   2.767   0.118  0.1309 -1.4475  0.7649
  122THF     H5 2070   0.506   2.841   0.299  1.1518 -0.3850 -0.7090
  122THF     H6 2071   0.393   2.925   0.183  0.3825 -0.4296 -1.4770
  122THF     H7 2072   0.278   2.563   0.154  0.1374  0.6531  1.1111
  122THF     H8 2073   0.245   2.703   0.055 -1.9391  0.5978  3.1749
  123THF     C1 2074   0.493   0.213   0.266 -0.1791 -0.5343  0.5951
  123THF     C2 2075   0.564   0.227   0.135  0.6503 -0.3559 -0.4927
  123THF     C3 2076   0.649   0.354   0.154 -0.4767 -0.5262 -0.8010
  123THF     O1 2077   0.603   0.410   0.272  0.3610 -0.1241 -0.7141
  123THF     C4 2078   0.474   0.361   0.317  0.1176  0.0194  0.5370
  123THF     H1 2079   0.400   0.158   0.247 -0.5939  0.2190  0.4660
  123THF     H2 2080   0.550   0.158   0.342 -2.7442 -2.3992  1.2661
  123THF     H3 2081   0.494   0.228   0.051  0.9495 -1.2721 -0.7567
  123THF     H4 2082   0.636   0.146   0.122  1.6650  0.5052 -0.2891
  123THF     H5 2083   0.752   0.319   0.172 -0.6491 -0.2516  0.8705
  123THF     H6 2084   0.634   0.429   0.076 -0.6818 -0.1582 -0.4154
  123THF     H7 2085   0.471   0.358   0.427  0.5075 -0.8184  0.5289
  123THF     H8 2086   0.395   0.426   0.277 -0.7731  0.5782  3.0697
  124THF     C1 2087   0.711   1.568   0.307  0.1029 -0.0824  0.0139
  124THF     C2 2088   0.596   1.591   0.409  0.1627 -0.1570  0.0227
  124THF     C3 2089   0.662   1.681   0.509  0.1120 -0.4269 -0.1388
  124THF     O1 2090   0.791   1.620   0.526  0.7119  0.0834  0.1228
  124THF     C4 2091   0.833   1.587   0.392  0.0756 -0.7121  0.1071
  124THF     H1 2092   0.704   1.466   0.269  3.8408 -0.6132  0.5510
  124THF     H2 2093   0.702   1.634   0.220 -0.8043  0.4446  0.5013
  124THF     H3 2094   0.576   1.496   0.461  2.8315  0.9462  3.2585
  124THF     H4 2095   0.506   1.620   0.354 -0.9423 -0.5263  1.6215
  124THF     H5 2096   0.677   1.786   0.481  0.4821 -0.6866 -0.9166
  124THF     H6 2097   0.599   1.675   0.598 -3.1464 -0.7019 -2.3919
  124THF     H7 2098   0.894   1.669   0.353 -0.3873 -0.2164  0.4303
  124THF     H8 2099   0.892   1.495   0.393  3.0484  1.1100 -0.9182
  125THF     C1 2100   0.528   0.464   1.376 -0.1955 -0.7253  0.3029
  125THF     C2 2101   0.617   0.584   1.402  0.3907 -0.6421 -0.2662
  125THF     C3 2102   0.586   0.623   1.548  0.2671 -0.0699  0.0518
  125THF     O1 2103   0.472   0.556   1.583 -0.2526 -0.4714  0.0752
  125THF     C4 2104   0.466   0.435   1.518  0.2494 -0.9935  0.4388
  125THF     H1 2105   0.454   0.495   1.302 -0.6921  2.4085  1.9991
  125THF     H2 2106   0.571   0.372   1.335  0.8958 -0.6396  1.2356
  125THF     H3 2107   0.606   0.664   1.329 -1.3845 -1.5705 -1.0512
  125THF     H4 2108   0.721   0.567   1.375  0.3965 -1.8612  0.5020
  125THF     H5 2109   0.662   0.574   1.610 -0.8056  0.2342  1.6497
  125THF     H6 2110   0.570   0.730   1.566  1.6542 -0.1367  1.8014
  125THF     H7 2111   0.524   0.360   1.572  1.2577 -0.7404 -0.2617
  125THF     H8 2112   0.365   0.395   1.514 -0.3199  0.3462  1.0827
  126THF     C1 2113   1.911   0.277   3.384 -0.0936  0.2880  0.2518
  126THF     C2 2114   1.886   0.357   3.510  0.0610  0.4642  0.0324
  126THF     C3 2115   1.769   0.283   3.571 -0.3936 -0.1269  0.4816
  126THF     O1 2116   1.726   0.192   3.470  0.2433 -0.5333  0.1768
  126THF     C4 2117   1.766   0.240   3.344 -0.1291 -0.5979  0.0090
  126THF     H1 2118   1.968   0.319   3.300  2.3649 -3.2557  0.0041
  126THF     H2 2119   1.972   0.191   3.411  1.0995  0.8633 -0.5193
  126THF     H3 2120   1.857   0.462   3.507  0.7885  0.7003  1.0268
  126THF     H4 2121   1.975   0.356   3.574  1.0274  0.6766 -1.2827
  126THF     H5 2122   1.794   0.237   3.667 -0.4256 -1.9432 -0.3732
  126THF     H6 2123   1.685   0.353   3.581  0.2952  0.6224  1.0912
  126THF     H7 2124   1.751   0.161   3.269  1.9399  0.7213 -1.8466
  126THF     H8 2125   1.702   0.326   3.323  2.5843  1.5200  0.1154
  127THF     C1 2126   1.215   2.665   1.391 -0.5368 -0.1095  0.5192
  127THF     C2 2127   1.152   2.794   1.345  0.0068  0.1543  0.4490
  127THF     C3 2128   1.058   2.826   1.463  0.2714  0.0940 -0.3361
  127THF     O1 2129   1.091   2.733   1.565 -0.1384  0.5872 -0.0040
  127THF     C4 2130   1.223   2.683   1.543 -0.3976  0.2947 -0.2829
  127THF     H1 2131   1.144   2.585   1.367 -1.2386  0.8513 -0.6093
  127THF     H2 2132   1.308   2.643   1.338 -0.8290 -0.4144  0.1236
  127THF     H3 2133   1.100   2.764   1.253  0.6437  2.3979 -0.6881
  127THF     H4 2134   1.230   2.865   1.314 -1.0373  1.2677  0.3172
  127THF     H5 2135   1.078   2.927   1.503  2.1421 -0.0746 -0.8287
  127THF     H6 2136   0.954   2.816   1.429  0.5148 -1.3288 -0.6603
  127THF     H7 2137   1.303   2.751   1.576 -0.5470  0.8616 -1.0548
  127THF     H8 2138   1.230   2.585   1.592 -0.9009 -0.1478 -1.0752
  128THF     C1 2139   1.509   1.922   1.537 -0.7754 -0.2357  0.1206
  128THF     C2 2140   1.503   1.770   1.557 -0.4704 -0.2926  0.5645
  128THF     C3 2141   1.552   1.719   1.423 -0.5930  0.6150 -0.9322
  128THF     O1 2142   1.517   1.827   1.325 -0.0525 -0.4789  0.3432
  128THF     C4 2143   1.457   1.936   1.395  0.2268  0.1082  0.5252
  128THF     H1 2144   1.459   1.984   1.613 -2.3083 -0.7177 -0.4744
  128THF     H2 2145   1.612   1.959   1.533 -1.0918  0.6452 -0.0041
  128THF     H3 2146   1.402   1.738   1.585 -0.3029 -1.5231 -0.2019
  128THF     H4 2147   1.566   1.740   1.642  0.8497  2.0276  0.4611
  128THF     H5 2148   1.661   1.707   1.414 -0.3268  1.9348  0.3789
  128THF     H6 2149   1.507   1.623   1.395  1.3178 -1.1591  1.7920
  128THF     H7 2150   1.491   2.029   1.349  0.1041  0.4121  1.0430
  128THF     H8 2151   1.347   1.930   1.389  0.1662  1.9269 -0.4507
  129THF     C1 2152   0.809   2.697   0.589  0.7938  0.5972  0.0456
  129THF     C2 2153   0.784   2.783   0.457 -0.3472  0.4491  0.0755
  129THF     C3 2154   0.850   2.700   0.335  0.3248  0.4049  0.3878
  129THF     O1 2155   0.914   2.598   0.405  0.0826  0.6146 -0.3112
  129THF     C4 2156   0.830   2.561   0.521  0.3340  1.0879 -0.2651
  129THF     H1 2157   0.899   2.722   0.646  0.5767  0.7731  0.3141
  129THF     H2 2158   0.731   2.692   0.666  0.5951  0.3329 -0.1729
  129THF     H3 2159   0.813   2.888   0.461 -0.1151  0.3062  2.4408
  129THF     H4 2160   0.677   2.793   0.433 -0.1463  1.0969 -0.5699
  129THF     H5 2161   0.782   2.651   0.263  0.0077  1.2767  0.0899
  129THF     H6 2162   0.924   2.757   0.279 -0.1086  0.5302 -0.0590
  129THF     H7 2163   0.741   2.509   0.484  0.3995 -1.6069  3.0887
  129THF     H8 2164   0.887   2.495   0.588  1.2544  1.7956 -0.3339
  130THF     C1 2165   2.301   0.405   0.975  0.0801  0.3550 -0.5493
  130THF     C2 2166   2.365   0.543   1.011 -0.1923 -0.1361  0.7649
  130THF     C3 2167   2.254   0.609   1.098 -0.6003 -0.0971 -0.4013
  130THF     O1 2168   2.133   0.539   1.066  0.1168 -0.0997  0.2651
  130THF     C4 2169   2.162   0.450   0.951 -0.5922  0.0448  0.0132
  130THF     H1 2170   2.341   0.354   0.887 -1.2207 -1.6591 -0.0141
  130THF     H2 2171   2.312   0.332   1.057 -0.4389  0.1766 -0.6365
  130THF     H3 2172   2.394   0.600   0.921 -0.6946 -4.1504 -2.0733
  130THF     H4 2173   2.454   0.519   1.069  1.4840  0.8375 -1.3441
  130THF     H5 2174   2.278   0.584   1.202 -0.0844  0.1948 -0.4479
  130THF     H6 2175   2.259   0.718   1.085  0.5841 -0.2106 -1.0353
  130THF     H7 2176   2.097   0.362   0.958 -2.0635  1.0396 -0.6431
  130THF     H8 2177   2.143   0.497   0.853  1.3393  0.7480 -0.0426
  131THF     C1 2178   3.029   0.933   0.616  0.1943  0.7205  0.3379
  131THF     C2 2179   2.901   0.936   0.521  0.7127  0.1159  0.7420
  131THF     C3 2180   2.947   1.038   0.411  0.0429  0.0754 -0.0709
  131THF     O1 2181   3.083   0.995   0.387 -0.1370 -0.4483  0.4139
  131THF     C4 2182   3.143   0.984   0.517 -0.0232 -0.2122 -0.4877
  131THF     H1 2183   3.037   0.985   0.712  1.5606 -2.3865  1.9927
  131THF     H2 2184   3.035   0.831   0.657  1.4844  1.0311  0.9530
  131THF     H3 2185   2.807   0.964   0.569 -0.3641 -1.5270 -0.3752
  131THF     H4 2186   2.878   0.839   0.476  0.8130  0.0236  0.8905
  131THF     H5 2187   2.902   1.038   0.311  0.3651  0.1876 -0.2153
  131THF     H6 2188   2.944   1.144   0.439  2.4058 -0.4806  2.5820
  131THF     H7 2189   3.231   0.919   0.511 -0.0998 -0.2648 -1.0981
  131THF     H8 2190   3.181   1.081   0.552 -0.5513 -0.2453  0.1988
  132THF     C1 2191   0.015   1.311   1.554 -0.0670  0.6677  0.1302
  132THF     C2 2192  -0.068   1.436   1.512  0.5131 -0.1412 -0.2801
  132THF     C3 2193  -0.177   1.371   1.407  1.2389 -0.9676  0.0100
  132THF     O1 2194  -0.177   1.231   1.446 -0.7554 -0.3568 -0.0686
  132THF     C4 2195  -0.100   1.204   1.564  0.4777 -0.2155 -0.1913
  132THF     H1 2196   0.094   1.290   1.482 -0.1409 -0.2398  0.3080
  132THF     H2 2197   0.064   1.329   1.650 -0.1827 -2.3727  0.8102
  132THF     H3 2198  -0.007   1.517   1.471  1.6962 -0.6735  0.3751
  132THF     H4 2199  -0.127   1.480   1.593  1.2114  1.1104 -0.4402
  132THF     H5 2200  -0.280   1.407   1.418  0.7397 -2.8555  1.8709
  132THF     H6 2201  -0.153   1.382   1.301 -0.3347  1.0625 -0.1637
  132THF     H7 2202  -0.167   1.213   1.650  0.9296 -3.1741  0.4993
  132THF     H8 2203  -0.065   1.101   1.565 -0.1527 -0.4303  0.2865
  133THF     C1 2204   2.410   1.961   1.422 -0.0248 -0.3661 -1.1056
  133THF     C2 2205   2.449   1.936   1.570 -0.0824 -0.2799 -0.0928
  133THF     C3 2206   2.546   1.824   1.565  1.2565  0.0356 -0.0141
  133THF     O1 2207   2.572   1.794   1.430  0.1891 -0.1213 -0.3159
  133THF     C4 2208   2.538   1.907   1.350  0.9610 -0.3993  0.2589
  133THF     H1 2209   2.321   1.907   1.387 -0.6946  0.8716 -1.3350
  133THF     H2 2210   2.386   2.066   1.404  0.0147 -0.2949 -0.7432
  133THF     H3 2211   2.362   1.914   1.632 -0.8964  2.2901 -0.2779
  133THF     H4 2212   2.486   2.032   1.607 -0.6857  0.2508 -0.8354
  133THF     H5 2213   2.636   1.862   1.615  0.5977  1.1801  0.3320
  133THF     H6 2214   2.522   1.735   1.624  0.3442  1.8888  2.4872
  133THF     H7 2215   2.615   1.982   1.371  0.2644  0.8975 -1.6132
  133THF     H8 2216   2.529   1.872   1.246 -0.6391  0.4100  0.1132
  134THF     C1 2217   1.981   1.018   0.966 -0.2763 -0.4523  0.1079
  134THF     C2 2218   2.116   1.083   0.931  0.1551 -0.1773  0.5831
  134THF     C3 2219   2.213   1.029   1.032 -0.0036 -0.0451  0.3469
  134THF     O1 2220   2.136   0.971   1.147  0.2309  0.1443 -0.0863
  134THF     C4 2221   1.996   1.019   1.115  0.0266  0.1967 -0.1451
  134THF     H1 2222   1.905   1.087   0.927  1.2527  0.6560 -1.0089
  134THF     H2 2223   1.981   0.914   0.933  2.6613  0.4681 -3.1201
  134THF     H3 2224   2.116   1.191   0.913 -2.1583 -0.0475  1.1815
  134THF     H4 2225   2.134   1.054   0.827 -0.2032  0.3281  0.3752
  134THF     H5 2226   2.270   0.948   0.986 -0.1075 -0.5813  1.1522
  134THF     H6 2227   2.284   1.109   1.056 -1.5826  1.7359 -0.8035
  134THF     H7 2228   1.917   0.954   1.155  0.1731  0.1875  0.1362
  134THF     H8 2229   1.975   1.118   1.159 -0.1552 -0.3948  1.1268
  135THF     C1 2230   0.714   3.026   1.541  0.1719 -0.0685  0.5156
  135THF     C2 2231   0.594   2.962   1.467 -0.3188  0.0434  0.1830
  135THF     C3 2232   0.479   3.064   1.485 -0.1077 -0.0499 -0.9995
  135THF     O1 2233   0.530   3.158   1.582 -0.3709 -0.8905 -0.3659
  135THF     C4 2234   0.671   3.170   1.546  0.4543 -0.1500 -0.3033
  135THF     H1 2235   0.725   2.979   1.640  3.2471 -1.6375 -0.5013
  135THF     H2 2236   0.797   3.000   1.475 -0.1149  2.9487 -1.1283
  135THF     H3 2237   0.567   2.866   1.513  0.4047  0.1314  0.8051
  135THF     H4 2238   0.602   2.942   1.359 -0.3166  0.6205  0.0763
  135THF     H5 2239   0.458   3.116   1.390  0.8275 -0.6572 -1.5464
  135THF     H6 2240   0.381   3.029   1.519 -0.1637  0.7105 -0.3475
  135THF     H7 2241   0.666   3.220   1.448 -0.2035 -0.5483 -0.4732
  135THF     H8 2242   0.726   3.237   1.613  0.5587  1.5923 -2.0729
  136THF     C1 2243   0.070   2.154   1.104  0.8911 -0.1607  0.1586
  136THF     C2 2244   0.037   2.279   1.190 -0.2022 -0.2941  0.6920
  136THF     C3 2245  -0.113   2.272   1.206  0.0144  0.0521  0.3207
  136THF     O1 2246  -0.135   2.128   1.208 -0.1932 -0.0280 -0.1279
  136THF     C4 2247  -0.059   2.077   1.105  0.0764  0.0095 -0.0791
  136THF     H1 2248   0.110   2.189   1.008 -0.4074  2.7645  0.6467
  136THF     H2 2249   0.150   2.096   1.151 -0.0047  0.0459  1.9485
  136THF     H3 2250   0.071   2.368   1.135  0.7938  0.0381  1.8299
  136THF     H4 2251   0.088   2.275   1.286 -0.0383 -0.7044  0.5889
  136THF     H5 2252  -0.146   2.328   1.295 -0.9953 -0.3690  0.2123
  136THF     H6 2253  -0.171   2.319   1.126 -0.8602  0.0361  0.9390
  136THF     H7 2254  -0.052   1.968   1.115  1.2939  0.2229  1.7424
  136THF     H8 2255  -0.113   2.091   1.010  2.3751  0.8426 -1.2817
  137THF     C1 2256   1.302   2.052   3.691  0.6946  0.5987 -0.5340
  137THF     C2 2257   1.434   1.988   3.744  0.3651  0.2457 -0.1681
  137THF     C3 2258   1.498   1.916   3.614  0.4120  0.4236  0.4887
  137THF     O1 2259   1.374   1.861   3.559 -0.0951  0.2079  0.4071
  137THF     C4 2260   1.267   1.957   3.571 -0.4337 -0.5800  0.1705
  137THF     H1 2261   1.225   2.044   3.768  0.1494 -1.4340 -1.2593
  137THF     H2 2262   1.312   2.158   3.668  0.6577  0.4763 -1.1187
  137THF     H3 2263   1.409   1.914   3.821 -0.9722  1.4642  0.5976
  137THF     H4 2264   1.500   2.063   3.789  1.4370 -0.4789 -0.4957
  137THF     H5 2265   1.537   1.990   3.543  1.8242  0.0358  0.8316
  137THF     H6 2266   1.563   1.831   3.638 -0.3562 -0.5779 -0.9644
  137THF     H7 2267   1.270   2.017   3.479 -1.4419  1.3223  1.3431
  137THF     H8 2268   1.167   1.911   3.575 -0.5368 -0.7350 -2.9180
  138THF     C1 2269   0.415   1.048   3.799  0.9735  0.6285 -0.8478
  138THF     C2 2270   0.355   0.901   3.804 -0.1308 -0.0786 -0.1884
  138THF     C3 2271   0.347   0.865   3.952 -0.7023  0.4222  0.3256
  138THF     O1 2272   0.397   0.978   4.017 -0.1048  0.2434  0.3657
  138THF     C4 2273   0.388   1.102   3.939  0.7996  0.3779  0.0947
  138THF     H1 2274   0.525   1.046   3.796  0.9183 -1.4598 -2.1279
  138THF     H2 2275   0.373   1.100   3.712 -2.1428  0.5789  0.5801
  138THF     H3 2276   0.415   0.836   3.739 -1.4242  1.3773 -2.9340
  138THF     H4 2277   0.258   0.892   3.755 -0.5312 -1.8798  0.8918
  138THF     H5 2278   0.242   0.847   3.979 -0.5207 -0.9928  0.0988
  138THF     H6 2279   0.414   0.778   3.958  0.3950  0.9479 -3.3254
  138THF     H7 2280   0.291   1.144   3.968 -0.3170 -2.7652  1.1012
  138THF     H8 2281   0.465   1.176   3.964 -0.8141  2.9821 -2.3106
  139THF     C1 2282   1.440   1.722   0.918 -0.5201  0.1138  0.3641
  139THF     C2 2283   1.330   1.772   1.005 -0.7868 -0.0544 -0.9391
  139THF     C3 2284   1.289   1.635   1.071 -0.6165 -0.2968 -0.2722
  139THF     O1 2285   1.285   1.541   0.961 -0.2171 -0.4980  0.0174
  139THF     C4 2286   1.373   1.593   0.856  0.0031  0.6233 -0.4815
  139THF     H1 2287   1.472   1.792   0.840  0.2344  0.1059  0.6646
  139THF     H2 2288   1.528   1.701   0.979 -1.6824  0.1362  2.0655
  139THF     H3 2289   1.243   1.799   0.944 -0.2433  1.4554 -1.0739
  139THF     H4 2290   1.368   1.843   1.079 -0.8719 -1.5039  0.5159
  139THF     H5 2291   1.358   1.598   1.149 -1.2945 -0.3460  0.3089
  139THF     H6 2292   1.197   1.639   1.131 -0.0941  0.3682  0.5132
  139THF     H7 2293   1.438   1.505   0.843 -0.2025  0.3887  0.0594
  139THF     H8 2294   1.312   1.601   0.766  0.3332 -1.0543 -0.8854
  140THF     C1 2295   0.915   1.968   1.029 -0.4180  0.0390 -0.0418
  140THF     C2 2296   1.018   2.082   1.004  0.2251 -0.0298  0.1858
  140THF     C3 2297   0.928   2.211   1.000  0.2317  0.1162 -0.6633
  140THF     O1 2298   0.797   2.165   1.027  0.2526 -0.2774 -0.6615
  140THF     C4 2299   0.810   2.044   1.107 -1.3453 -0.2271 -0.2925
  140THF     H1 2300   0.877   1.937   0.931 -1.7719 -0.6965  0.7059
  140THF     H2 2301   0.955   1.883   1.085 -2.6160  0.1153  1.6959
  140THF     H3 2302   1.082   2.061   0.918 -0.0289  3.3303 -0.8811
  140THF     H4 2303   1.095   2.086   1.082 -1.0641 -0.4335  1.4969
  140THF     H5 2304   0.969   2.282   1.073  0.3288 -0.4357 -0.1767
  140THF     H6 2305   0.933   2.265   0.904 -1.4757  0.0974 -0.7779
  140THF     H7 2306   0.835   2.073   1.209  1.4910  3.1887 -1.8542
  140THF     H8 2307   0.705   2.013   1.094 -1.1759 -0.5070 -1.0591
  141THF     C1 2308   2.890   2.295   1.348 -0.0941  0.6991 -0.7977
  141THF     C2 2309   2.741   2.266   1.397 -0.2304  0.1713 -0.5034
  141THF     C3 2310   2.774   2.181   1.524 -0.2149 -0.9457 -0.1267
  141THF     O1 2311   2.886   2.257   1.575 -0.3833  0.5182  0.3385
  141THF     C4 2312   2.984   2.279   1.474  0.1527  0.3797  0.2841
  141THF     H1 2313   2.909   2.225   1.266 -1.9340 -1.3957  0.4970
  141THF     H2 2314   2.895   2.396   1.305  0.0034  1.1065  0.1557
  141THF     H3 2315   2.672   2.216   1.328 -2.0185 -0.3521  1.5935
  141THF     H4 2316   2.684   2.354   1.430 -1.2543 -0.2881 -1.0199
  141THF     H5 2317   2.701   2.187   1.605 -0.9158  3.7165 -0.9650
  141THF     H6 2318   2.800   2.075   1.509  0.0743 -0.6857 -1.6082
  141THF     H7 2319   3.043   2.368   1.499  0.9965 -0.2924  0.7089
  141THF     H8 2320   3.048   2.191   1.469  2.6582  2.1908 -0.5162
  142THF     C1 2321   2.079   0.042   1.034  0.0193  0.0518 -0.3514
  142THF     C2 2322   2.171  -0.065   1.097  0.3319  0.2116 -1.0101
  142THF     C3 2323   2.086  -0.188   1.084 -0.0199  0.1352 -0.7381
  142THF     O1 2324   1.957  -0.147   1.112 -0.6153 -0.6947  0.3579
  142THF     C4 2325   1.942  -0.032   1.031 -0.3875  0.3021  0.4926
  142THF     H1 2326   2.073   0.136   1.089  0.5820 -0.8934  1.3575
  142THF     H2 2327   2.112   0.074   0.935  0.0456  1.5128  0.1270
  142THF     H3 2328   2.201  -0.022   1.193 -2.4620 -0.8700  0.3857
  142THF     H4 2329   2.268  -0.086   1.051  0.9054  0.9695 -0.1549
  142THF     H5 2330   2.090  -0.234   0.984 -2.2549  1.4840 -1.4799
  142THF     H6 2331   2.130  -0.252   1.161  1.5343 -0.0222 -1.7410
  142THF     H7 2332   1.925  -0.072   0.931 -1.8946  1.6255  0.2047
  142THF     H8 2333   1.857   0.033   1.055  0.3676  1.2965  0.5118
  143THF     C1 2334   0.378   0.069   1.377 -0.7345 -0.2848 -0.5779
  143THF     C2 2335   0.370   0.047   1.535 -0.1630  0.2989  0.1902
  143THF     C3 2336   0.519   0.070   1.587 -0.0505  0.7777  0.2204
  143THF     O1 2337   0.590   0.131   1.479  0.2109  0.1335  0.0069
  143THF     C4 2338   0.531   0.070   1.365  0.5342  1.1153 -0.7525
  143THF     H1 2339   0.330  -0.012   1.322 -3.4020  2.1770 -2.0521
  143THF     H2 2340   0.322   0.155   1.339 -1.4668 -1.0169 -1.1657
  143THF     H3 2341   0.331  -0.049   1.573 -0.8702  0.1091 -1.0054
  143THF     H4 2342   0.299   0.112   1.588 -1.0234 -1.8674  1.7790
  143THF     H5 2343   0.508   0.138   1.672  2.2980  2.0576 -0.4675
  143THF     H6 2344   0.567  -0.025   1.615  0.1657  0.6032 -0.7408
  143THF     H7 2345   0.559   0.124   1.273  1.0275 -0.1713 -1.3702
  143THF     H8 2346   0.571  -0.031   1.352  2.1709  1.5862  0.4962
  144THF     C1 2347   0.952   0.167   1.555 -0.2871 -0.3067  0.5856
  144THF     C2 2348   0.860   0.292   1.553 -0.4546 -0.5317  0.8492
  144THF     C3 2349   0.954   0.404   1.519  0.3820 -0.2588 -0.4311
  144THF     O1 2350   1.068   0.340   1.463 -0.1288 -0.1745  0.0752
  144THF     C4 2351   1.092   0.229   1.550 -0.9126 -0.4948  0.1567
  144THF     H1 2352   0.929   0.112   1.646  0.1100 -0.3160  0.6839
  144THF     H2 2353   0.941   0.096   1.472 -0.3340  0.0117  0.3188
  144THF     H3 2354   0.800   0.306   1.644 -3.0738 -1.1115 -0.7390
  144THF     H4 2355   0.791   0.284   1.468  1.2549 -1.6499 -0.4689
  144THF     H5 2356   0.910   0.469   1.442 -0.1555  0.7327  0.6936
  144THF     H6 2357   0.975   0.473   1.601  0.2254 -2.4883  1.5506
  144THF     H7 2358   1.168   0.168   1.498 -0.9416 -1.1372  0.8569
  144THF     H8 2359   1.144   0.268   1.638 -2.3429  1.6774  0.0753
  145THF     C1 2360   1.932   1.269   0.577  0.5961 -0.2184  0.7218
  145THF     C2 2361   1.787   1.318   0.583  0.2196 -0.8337  0.1706
  145THF     C3 2362   1.801   1.439   0.485 -0.1975 -0.0777 -0.2625
  145THF     O1 2363   1.869   1.374   0.374  0.1294 -0.6532  0.3307
  145THF     C4 2364   1.988   1.321   0.441  0.0527  0.2996  0.3916
  145THF     H1 2365   1.989   1.316   0.659  0.9481  1.6784 -0.5695
  145THF     H2 2366   1.943   1.160   0.584 -1.6063 -0.3630  2.1770
  145THF     H3 2367   1.759   1.351   0.684 -1.4303  1.9979 -1.1305
  145THF     H4 2368   1.718   1.239   0.551 -1.8469  0.3691  1.5262
  145THF     H5 2369   1.713   1.493   0.446 -0.1412  0.9554  1.0085
  145THF     H6 2370   1.861   1.516   0.535  1.4563 -3.0962  2.5890
  145THF     H7 2371   2.033   1.239   0.384 -0.8933 -1.1740  1.7349
  145THF     H8 2372   2.054   1.407   0.460 -1.0956  1.4646 -0.7763
  146THF     C1 2373   1.723   0.683   0.989 -0.0718 -0.2787 -0.6527
  146THF     C2 2374   1.627   0.635   1.100 -0.3003 -0.4991 -0.5383
  146THF     C3 2375   1.587   0.484   1.054 -0.6096 -0.7564  1.0545
  146THF     O1 2376   1.654   0.472   0.920  0.0033 -0.4711 -0.0619
  146THF     C4 2377   1.770   0.550   0.935 -0.5165 -0.3760  0.4237
  146THF     H1 2378   1.673   0.746   0.915 -0.6027 -1.0741 -0.9677
  146THF     H2 2379   1.807   0.747   1.021  0.4921 -1.1126 -0.4480
  146THF     H3 2380   1.537   0.696   1.108  0.6733  0.8714  0.0952
  146THF     H4 2381   1.667   0.637   1.202  2.2497  1.6413 -1.5326
  146THF     H5 2382   1.631   0.405   1.116  2.2908 -0.9267 -1.1068
  146THF     H6 2383   1.481   0.460   1.041 -0.6776 -0.2068  0.5837
  146THF     H7 2384   1.836   0.509   1.013  1.1054  1.9013  0.2917
  146THF     H8 2385   1.825   0.561   0.841  0.1049  3.2136  1.1420
  147THF     C1 2386   2.689   1.384   1.559  0.2625 -0.3383 -0.3396
  147THF     C2 2387   2.777   1.259   1.540  0.7309 -0.1180  0.8723
  147THF     C3 2388   2.884   1.315   1.443 -0.4291  0.1312 -0.2752
  147THF     O1 2389   2.820   1.400   1.353 -0.2015  0.3610 -0.0392
  147THF     C4 2390   2.690   1.423   1.411  0.7357  0.2573  0.5027
  147THF     H1 2391   2.586   1.372   1.593  0.7978  0.1694  1.5335
  147THF     H2 2392   2.741   1.461   1.617  2.1421 -2.1024  0.3489
  147THF     H3 2393   2.726   1.176   1.490 -1.6790  1.3197  0.8715
  147THF     H4 2394   2.828   1.218   1.628  2.4221 -2.0549 -0.9732
  147THF     H5 2395   2.951   1.374   1.507 -0.9430  2.0458 -1.4424
  147THF     H6 2396   2.941   1.236   1.392  0.2905  1.0053 -0.8383
  147THF     H7 2397   2.665   1.529   1.396 -4.0379 -0.7858  0.4103
  147THF     H8 2398   2.614   1.371   1.351  1.9870 -0.6272 -0.3551
  148THF     C1 2399   2.023   0.691   1.337 -0.7485  0.0394  0.2901
  148THF     C2 2400   1.935   0.793   1.403  0.1483 -0.0938  0.7116
  148THF     C3 2401   1.889   0.712   1.530  0.3124  0.6790 -0.2107
  148THF     O1 2402   1.992   0.611   1.555  0.3094  0.7785 -0.4184
  148THF     C4 2403   2.098   0.632   1.461  0.3965  0.0778  0.0031
  148THF     H1 2404   1.961   0.614   1.290  0.1655  0.6888 -2.0023
  148THF     H2 2405   2.097   0.740   1.273  2.2661  0.0789  3.6329
  148THF     H3 2406   1.857   0.817   1.330  1.0871 -1.1445 -0.6824
  148THF     H4 2407   1.987   0.887   1.423 -0.4684  0.1660  1.1268
  148THF     H5 2408   1.880   0.772   1.622 -2.0124 -0.8999  0.6376
  148THF     H6 2409   1.788   0.671   1.518  1.1468 -1.2922 -0.5857
  148THF     H7 2410   2.178   0.696   1.501 -0.9224  1.8347 -0.1053
  148THF     H8 2411   2.153   0.542   1.432 -0.0329  0.7204 -2.9525
  149THF     C1 2412   0.263   2.937   0.611  0.2455  0.1949 -0.7738
  149THF     C2 2413   0.394   2.847   0.613  0.4094  0.1952 -0.1496
  149THF     C3 2414   0.399   2.829   0.768  0.0770 -0.0949  0.2126
  149THF     O1 2415   0.384   2.967   0.813 -0.9369  0.2993  0.4873
  149THF     C4 2416   0.262   3.012   0.751  0.2026  0.0948 -0.3629
  149THF     H1 2417   0.259   3.009   0.528 -0.1094  0.0042 -0.9215
  149THF     H2 2418   0.188   2.862   0.586  0.6763 -0.5277  0.0770
  149THF     H3 2419   0.479   2.909   0.584  0.9865  0.3268  1.7443
  149THF     H4 2420   0.378   2.748   0.567 -0.2165  0.9660 -1.6263
  149THF     H5 2421   0.316   2.764   0.799 -0.6789  0.4581 -0.6488
  149THF     H6 2422   0.493   2.781   0.799 -0.9205 -2.0907  0.2461
  149THF     H7 2423   0.175   2.992   0.814  1.7167 -1.0959  1.4355
  149THF     H8 2424   0.283   3.120   0.743 -1.4017  0.3837 -0.6770
  150THF     C1 2425   3.313   2.668   2.256  0.0908  0.0092 -0.9032
  150THF     C2 2426   3.450   2.666   2.327 -0.2213  0.5923  0.7331
  150THF     C3 2427   3.472   2.516   2.370 -0.3275 -0.2268 -0.8727
  150THF     O1 2428   3.337   2.464   2.376  0.0671 -0.8330  0.2656
  150THF     C4 2429   3.263   2.524   2.270  0.1360  0.3909  0.7269
  150THF     H1 2430   3.245   2.747   2.291  2.0831  2.4319 -2.2806
  150THF     H2 2431   3.336   2.696   2.153  1.2925  0.4916 -0.5122
  150THF     H3 2432   3.455   2.732   2.415 -1.7789 -0.2012  1.4272
  150THF     H4 2433   3.531   2.705   2.264 -0.7994 -0.9314 -1.0037
  150THF     H5 2434   3.524   2.466   2.287  0.2101 -0.5140 -0.3661
  150THF     H6 2435   3.529   2.499   2.462 -2.4876  1.7333  0.8940
  150THF     H7 2436   3.294   2.466   2.182 -1.4552  0.5501  0.0464
  150THF     H8 2437   3.157   2.496   2.281 -0.0967  1.3304  0.9645
  151THF     C1 2438   0.370   2.498   3.161  0.4706  1.0516 -0.2386
  151THF     C2 2439   0.362   2.646   3.127 -0.2044 -0.2135 -0.4249
  151THF     C3 2440   0.372   2.714   3.271  0.2807 -0.1346  0.8953
  151THF     O1 2441   0.375   2.605   3.363  0.6163 -0.3385 -0.0676
  151THF     C4 2442   0.306   2.492   3.305 -0.5915 -0.8745  0.1462
  151THF     H1 2443   0.327   2.426   3.090 -0.1082 -0.1077  1.2428
  151THF     H2 2444   0.475   2.470   3.151 -0.0826 -1.3959  0.3589
  151THF     H3 2445   0.267   2.679   3.084 -0.1530  1.2079  0.5230
  151THF     H4 2446   0.448   2.677   3.067  2.0781  0.3784  2.9917
  151THF     H5 2447   0.464   2.770   3.294  0.2497  0.3174 -0.0323
  151THF     H6 2448   0.280   2.770   3.290 -1.1295 -2.0118 -0.2597
  151THF     H7 2449   0.327   2.405   3.369  1.2011  0.4521  1.4177
  151THF     H8 2450   0.198   2.514   3.303 -0.1971  0.9901 -1.2866
  152THF     C1 2451   2.888   2.120   3.338 -0.3518  0.4730 -0.2120
  152THF     C2 2452   2.924   2.258   3.383  0.6653 -0.6605  0.0609
  152THF     C3 2453   3.078   2.251   3.411 -0.4638  0.4037 -0.6113
  152THF     O1 2454   3.116   2.124   3.357  0.1437  0.0293  0.1238
  152THF     C4 2455   3.017   2.081   3.269 -0.2405  0.1314  0.1107
  152THF     H1 2456   2.879   2.052   3.423  1.4339  0.9313  0.3738
  152THF     H2 2457   2.799   2.107   3.275  0.0196 -2.8136 -0.1362
  152THF     H3 2458   2.873   2.297   3.472 -0.7473  0.9586 -1.4157
  152THF     H4 2459   2.910   2.333   3.304 -1.3802 -0.1532  0.8645
  152THF     H5 2460   3.140   2.328   3.364 -0.8871  1.7732  1.0558
  152THF     H6 2461   3.098   2.250   3.519 -1.4290 -0.5274 -0.4404
  152THF     H7 2462   3.030   2.122   3.168  1.1650  0.0990  0.2753
  152THF     H8 2463   3.015   1.974   3.243 -2.9069  0.2507 -0.4021
  153THF     C1 2464   2.436   3.106   3.062 -0.1006 -0.4950  0.1207
  153THF     C2 2465   2.517   3.050   3.174 -0.0696  0.1418 -0.1048
  153THF     C3 2466   2.662   3.092   3.135 -0.0032 -0.6683 -0.7276
  153THF     O1 2467   2.638   3.228   3.099 -0.2833 -0.5798  0.0375
  153THF     C4 2468   2.505   3.249   3.047  0.8388  0.0720  0.3871
  153THF     H1 2469   2.434   3.040   2.975  1.7488 -1.2852  0.6491
  153THF     H2 2470   2.336   3.130   3.100  1.3192 -2.2024  5.4308
  153THF     H3 2471   2.508   2.942   3.185  1.8362  0.1412  1.7805
  153THF     H4 2472   2.481   3.091   3.269 -0.3104 -0.9227  0.2667
  153THF     H5 2473   2.733   3.094   3.219 -1.7826  0.3162  0.8063
  153THF     H6 2474   2.704   3.034   3.052 -1.1599 -1.1510 -0.9868
  153THF     H7 2475   2.458   3.336   3.095  0.8012  1.3088 -1.8087
  153THF     H8 2476   2.511   3.282   2.943  0.9799 -0.5335  0.2047
  154THF     C1 2477   3.392   0.981   2.400  0.3645 -0.4043  0.8660
  154THF     C2 2478   3.266   0.887   2.431  0.9173 -0.3527  0.6009
  154THF     C3 2479   3.220   0.833   2.295 -0.4212  0.0118  0.1485
  154THF     O1 2480   3.328   0.860   2.212  0.6532  0.4428 -0.6151
  154THF     C4 2481   3.392   0.988   2.244 -0.6020  0.0341  0.2071
  154THF     H1 2482   3.380   1.085   2.434 -0.4874  0.2851 -1.4644
  154THF     H2 2483   3.489   0.953   2.442  0.4607  0.1173  0.9968
  154THF     H3 2484   3.188   0.924   2.498 -0.0032 -2.4333  0.7061
  154THF     H4 2485   3.286   0.798   2.491  1.0430 -2.2119 -2.1219
  154THF     H5 2486   3.189   0.728   2.298 -1.7562  0.4194  1.4129
  154THF     H6 2487   3.133   0.878   2.244  0.7551  0.9427 -1.0854
  154THF     H7 2488   3.492   0.993   2.199  0.0552  0.4063  1.6597
  154THF     H8 2489   3.331   1.062   2.191 -0.8995 -0.9644 -0.8613
  155THF     C1 2490   0.992   1.785   3.272  0.9606 -0.0241 -0.4498
  155THF     C2 2491   0.879   1.851   3.352 -0.0836  0.7089 -0.4894
  155THF     C3 2492   0.934   1.995   3.374  0.7003  0.9239 -0.3544
  155THF     O1 2493   1.067   1.999   3.318 -0.4769  0.1525 -0.1437
  155THF     C4 2494   1.063   1.903   3.215  0.1814 -0.5503  0.1281
  155THF     H1 2495   1.066   1.734   3.335 -0.0598 -0.9645 -0.0011
  155THF     H2 2496   0.956   1.712   3.199 -0.7135 -0.5007  0.8206
  155THF     H3 2497   0.852   1.811   3.451 -1.2964  0.3952 -0.9333
  155THF     H4 2498   0.791   1.858   3.287  0.5689  0.4513 -1.4038
  155THF     H5 2499   0.873   2.073   3.326  0.2523 -0.6815 -2.5146
  155THF     H6 2500   0.944   2.017   3.481 -1.4577  0.2887  0.0170
  155THF     H7 2501   1.009   1.952   3.133 -0.0388  0.9244  1.1484
  155THF     H8 2502   1.165   1.887   3.179  0.4177 -4.8297  2.3204
  156THF     C1 2503   3.050   0.614   2.945 -0.0415 -0.6761  0.2475
  156THF     C2 2504   2.986   0.645   2.803 -0.0854  0.1069  0.4751
  156THF     C3 2505   3.111   0.628   2.716  0.0657  0.2966 -0.3031
  156THF     O1 2506   3.167   0.503   2.766 -0.5609 -0.8741  0.6532
  156THF     C4 2507   3.157   0.501   2.909  0.2100  0.7801 -0.4161
  156THF     H1 2508   3.100   0.704   2.982  2.3886 -0.0205 -4.2960
  156THF     H2 2509   2.977   0.593   3.023  0.1239  1.6748  1.0808
  156THF     H3 2510   2.935   0.742   2.801 -0.8856 -0.2564  2.1247
  156THF     H4 2511   2.913   0.565   2.790  0.1226 -0.1012  0.5718
  156THF     H5 2512   3.083   0.620   2.610  0.3703 -1.2802 -0.2804
  156THF     H6 2513   3.187   0.703   2.741 -0.1408 -0.0939  1.5998
  156THF     H7 2514   3.140   0.396   2.935  0.7458  1.1792  1.5978
  156THF     H8 2515   3.256   0.522   2.951  0.0462  0.8036 -0.0423
  157THF     C1 2516   1.890   2.805   3.727 -0.1957 -0.2143 -0.1501
  157THF     C2 2517   1.922   2.877   3.587  0.0055  0.4976 -0.9170
  157THF     C3 2518   1.991   3.005   3.632  0.4644 -0.5443 -0.3053
  157THF     O1 2519   1.966   3.008   3.780 -0.1943 -0.0483  0.1414
  157THF     C4 2520   1.974   2.878   3.827  0.1270  0.2502 -0.1641
  157THF     H1 2521   1.787   2.824   3.761  0.8512  2.7811  1.5163
  157THF     H2 2522   1.904   2.696   3.728  0.7282 -0.0896  0.9724
  157THF     H3 2523   1.834   2.877   3.522  0.8461 -0.7743 -2.0945
  157THF     H4 2524   2.001   2.812   3.549 -0.4263 -0.4420 -0.2451
  157THF     H5 2525   2.101   3.011   3.627  0.4893  0.3303  1.0371
  157THF     H6 2526   1.950   3.098   3.591 -1.9759 -1.3921  0.1501
  157THF     H7 2527   2.077   2.840   3.829 -0.7827 -2.2867  1.7784
  157THF     H8 2528   1.933   2.868   3.929  1.5547 -3.4776  0.1552
  158THF     C1 2529   2.315   2.487   0.076 -0.0603  0.2631  0.5531
  158THF     C2 2530   2.433   2.427  -0.015 -0.3462 -0.6568 -0.0265
  158THF     C3 2531   2.343   2.376  -0.133  0.9920 -0.2483  0.2520
  158THF     O1 2532   2.249   2.484  -0.155  0.4001 -0.1828  0.1672
  158THF     C4 2533   2.203   2.524  -0.025 -0.2865 -0.6317 -0.1197
  158THF     H1 2534   2.283   2.415   0.152 -1.6340 -2.1140 -2.2726
  158THF     H2 2535   2.349   2.575   0.132 -1.2723  1.3976 -0.4697
  158THF     H3 2536   2.497   2.350   0.030  0.5233 -0.5209 -1.0078
  158THF     H4 2537   2.496   2.500  -0.066 -0.2557 -0.2061  0.7223
  158THF     H5 2538   2.395   2.346  -0.225 -0.0455 -0.9451 -0.1103
  158THF     H6 2539   2.294   2.284  -0.099  1.7236 -0.2117  1.4505
  158THF     H7 2540   2.185   2.632  -0.019  0.8140 -0.5381  1.8946
  158THF     H8 2541   2.112   2.470   0.006  0.7571 -2.0079  0.5719
  159THF     C1 2542   0.066   2.306   2.988 -0.1997  0.6609  0.1448
  159THF     C2 2543  -0.028   2.325   3.107 -0.3725  0.0055  0.2481
  159THF     C3 2544  -0.166   2.287   3.046 -0.3488  0.6369 -0.4170
  159THF     O1 2545  -0.144   2.262   2.909  0.3713  0.0458  0.9585
  159THF     C4 2546  -0.016   2.206   2.897 -0.3765  0.4154  0.0855
  159THF     H1 2547   0.093   2.399   2.937  1.2690  0.4807  0.5560
  159THF     H2 2548   0.163   2.266   3.021  0.4199  1.5063 -0.6184
  159THF     H3 2549  -0.015   2.428   3.144 -3.7481 -0.3664  2.7280
  159THF     H4 2550  -0.007   2.264   3.195 -0.3230 -1.3999 -0.7329
  159THF     H5 2551  -0.206   2.197   3.094  0.2624  0.9590  0.6918
  159THF     H6 2552  -0.239   2.367   3.057 -1.1032 -0.1126  0.0983
  159THF     H7 2553  -0.017   2.103   2.935 -3.8067  1.3837  2.9498
  159THF     H8 2554   0.008   2.214   2.790  0.7891  1.4199  0.4036
  160THF     C1 2555   1.436   1.705   3.291 -0.3164 -0.3317 -0.6818
  160THF     C2 2556   1.353   1.636   3.190 -0.4297  0.9444  0.3065
  160THF     C3 2557   1.390   1.490   3.228  0.0938  0.3891 -0.3639
  160THF     O1 2558   1.459   1.488   3.359  0.2365 -0.0020 -0.3255
  160THF     C4 2559   1.438   1.611   3.412 -0.1710  0.3787  0.1631
  160THF     H1 2560   1.533   1.733   3.249 -0.1840 -1.4150 -1.1014
  160THF     H2 2561   1.396   1.804   3.316  0.2772  0.2327 -1.8987
  160THF     H3 2562   1.369   1.679   3.090 -1.3696 -1.5302 -0.9740
  160THF     H4 2563   1.247   1.655   3.207 -1.3994 -2.3738 -1.4361
  160THF     H5 2564   1.308   1.417   3.224 -0.8438  1.5332 -3.5738
  160THF     H6 2565   1.462   1.457   3.152 -1.5408  2.1193 -2.7323
  160THF     H7 2566   1.352   1.605   3.480  0.0149 -1.9995  0.2527
  160THF     H8 2567   1.531   1.641   3.462  1.7407  0.2514 -3.2395
  161THF     C1 2568   2.966   3.142   2.692  0.3434 -0.0061 -0.2905
  161THF     C2 2569   3.066   3.250   2.659  0.9332 -0.1814 -0.1793
  161THF     C3 2570   3.203   3.176   2.642  0.0742 -1.2487  0.4377
  161THF     O1 2571   3.168   3.038   2.652 -0.3168  0.3676  0.9320
  161THF     C4 2572   3.058   3.034   2.747 -0.6899  0.8477 -0.2471
  161THF     H1 2573   2.887   3.164   2.764  0.5885 -2.5974  0.8180
  161THF     H2 2574   2.913   3.102   2.605 -0.3047 -2.3431  1.1543
  161THF     H3 2575   3.082   3.323   2.739 -0.5509  0.7786 -0.7333
  161THF     H4 2576   3.049   3.297   2.561 -1.0232 -1.9158 -0.7189
  161THF     H5 2577   3.265   3.205   2.556  2.0045 -1.0960  1.8296
  161THF     H6 2578   3.269   3.197   2.727 -1.0884  0.4060  0.9414
  161THF     H7 2579   3.018   2.931   2.748  0.6400  0.2764  3.0946
  161THF     H8 2580   3.088   3.057   2.850 -1.6583 -0.0080  0.2343
  162THF     C1 2581   0.737   0.668   0.527 -0.2450  0.5562  0.1621
  162THF     C2 2582   0.878   0.665   0.596 -0.7572  0.7911  0.3670
  162THF     C3 2583   0.952   0.765   0.500  0.1641 -0.0167  0.4714
  162THF     O1 2584   0.895   0.741   0.369 -0.1660 -0.3647 -0.1761
  162THF     C4 2585   0.771   0.664   0.376 -0.5355 -0.2217  0.6970
  162THF     H1 2586   0.683   0.579   0.563 -1.4429  1.2155  0.0025
  162THF     H2 2587   0.686   0.761   0.551 -1.0390  0.1996 -0.1157
  162THF     H3 2588   0.928   0.568   0.579  0.7512  1.4832  0.7073
  162THF     H4 2589   0.885   0.704   0.698 -4.2249 -0.4539  1.1391
  162THF     H5 2590   0.927   0.868   0.529 -3.5682 -0.6011 -0.4821
  162THF     H6 2591   1.060   0.747   0.503  0.2677  0.6465  0.8025
  162THF     H7 2592   0.694   0.703   0.308 -0.8549 -2.2011 -0.1017
  162THF     H8 2593   0.788   0.561   0.345 -0.7882 -0.2970  0.8001
  163THF     C1 2594   1.450   0.137   0.331 -0.3811  0.2460 -0.5502
  163THF     C2 2595   1.553   0.172   0.443  0.2406  0.5426  0.5100
  163THF     C3 2596   1.479   0.129   0.570  0.5814 -0.0493 -0.1926
  163THF     O1 2597   1.392   0.024   0.535 -0.2925 -0.3649  0.4011
  163THF     C4 2598   1.399   0.000   0.387 -0.2199  0.2729 -0.5190
  163THF     H1 2599   1.366   0.207   0.330 -0.8535 -0.3072  0.4055
  163THF     H2 2600   1.493   0.133   0.230 -1.7294  1.4660 -1.1892
  163THF     H3 2601   1.577   0.278   0.452 -0.1674  0.8801 -2.0822
  163THF     H4 2602   1.650   0.120   0.450  0.7013  1.3024 -0.1590
  163THF     H5 2603   1.549   0.086   0.643  0.1456  2.7078  1.9206
  163THF     H6 2604   1.420   0.213   0.609 -1.9438 -1.0889 -1.6228
  163THF     H7 2605   1.475  -0.076   0.366  0.3771  0.7040  0.0254
  163THF     H8 2606   1.304  -0.032   0.343  0.0999 -0.4666 -0.6680
  164THF     C1 2607   2.424   3.322   2.620 -0.0621 -0.5973 -0.0305
  164THF     C2 2608   2.527   3.413   2.687 -0.0665  0.3318  0.0124
  164THF     C3 2609   2.653   3.320   2.705  0.5311  0.0992  0.1337
  164THF     O1 2610   2.621   3.194   2.638  0.1485 -0.2716  0.1606
  164THF     C4 2611   2.481   3.174   2.650  0.1276 -0.6549 -0.8989
  164THF     H1 2612   2.330   3.324   2.675 -0.6578  2.1655 -1.0408
  164THF     H2 2613   2.415   3.351   2.514 -3.8786 -1.5922 -0.0513
  164THF     H3 2614   2.490   3.468   2.774  1.2932  1.8451 -0.3414
  164THF     H4 2615   2.544   3.497   2.619 -0.9037  1.0938  0.7344
  164THF     H5 2616   2.742   3.365   2.660 -0.3466  1.7886  0.0102
  164THF     H6 2617   2.681   3.299   2.809  2.1685  0.2299 -0.2673
  164THF     H7 2618   2.448   3.094   2.583  0.4861  0.2887 -2.2253
  164THF     H8 2619   2.457   3.147   2.754 -0.9583  0.2529 -0.9050
  165THF     C1 2620   3.262   2.592   0.437 -0.2692  0.4950  0.2009
  165THF     C2 2621   3.330   2.719   0.365 -0.0619 -0.3270 -0.2110
  165THF     C3 2622   3.335   2.674   0.207 -0.2425 -0.1039 -0.1227
  165THF     O1 2623   3.286   2.540   0.211  0.1620  0.8403  0.0385
  165THF     C4 2624   3.191   2.528   0.317 -0.9846  0.4942  0.9185
  165THF     H1 2625   3.339   2.522   0.470 -0.9618 -1.1595 -1.5939
  165THF     H2 2626   3.188   2.608   0.517 -1.5832  0.2345 -0.9371
  165THF     H3 2627   3.428   2.749   0.406  0.1700 -1.5765  0.1553
  165THF     H4 2628   3.261   2.803   0.375 -0.4001 -0.8048  1.8430
  165THF     H5 2629   3.264   2.734   0.149  0.5892 -2.0933 -3.3112
  165THF     H6 2630   3.432   2.677   0.156 -0.5376 -0.5347 -0.7142
  165THF     H7 2631   3.098   2.584   0.299 -1.7496 -0.6619  1.1664
  165THF     H8 2632   3.167   2.422   0.333 -2.8365  0.7994  0.3413
  166THF     C1 2633   0.161   1.397   3.381  0.3116 -0.5731 -0.1175
  166THF     C2 2634   0.231   1.259   3.385 -0.0216  0.1795  0.1544
  166THF     C3 2635   0.358   1.300   3.459  0.1284 -0.5906 -0.8780
  166THF     O1 2636   0.297   1.368   3.569  0.5653  0.2101  0.2847
  166THF     C4 2637   0.197   1.461   3.518 -0.2563 -0.1923  0.2379
  166THF     H1 2638   0.209   1.460   3.305 -0.5287 -0.0680 -0.2413
  166THF     H2 2639   0.055   1.384   3.356 -0.0562 -1.9506  2.0750
  166THF     H3 2640   0.249   1.217   3.286 -1.5456 -1.5314  0.5753
  166THF     H4 2641   0.172   1.188   3.444  0.3073  0.4920  0.8657
  166THF     H5 2642   0.420   1.214   3.488  1.8819  1.3025  1.1519
  166THF     H6 2643   0.421   1.373   3.407  0.9406 -2.9709 -3.3767
  166THF     H7 2644   0.116   1.473   3.592  0.7326 -0.1598  1.3274
  166THF     H8 2645   0.239   1.561   3.502 -1.2832  0.1853 -0.1567
  167THF     C1 2646   1.499   0.574   2.772  0.0919  0.3141 -0.0120
  167THF     C2 2647   1.347   0.605   2.783 -0.8127  0.0526 -0.4048
  167THF     C3 2648   1.294   0.516   2.668  0.0960 -0.3109 -0.3957
  167THF     O1 2649   1.370   0.396   2.676  0.3501 -0.0822 -0.2770
  167THF     C4 2650   1.505   0.430   2.708  0.4066  1.0981 -0.2136
  167THF     H1 2651   1.553   0.649   2.712 -2.2767  1.7593 -0.4000
  167THF     H2 2652   1.553   0.568   2.867  0.6522 -2.9953 -0.4773
  167THF     H3 2653   1.317   0.710   2.791  0.4811  0.5489 -1.9683
  167THF     H4 2654   1.311   0.558   2.876  1.1098 -0.0157  0.3160
  167THF     H5 2655   1.190   0.490   2.692  0.1956 -0.3606 -0.0072
  167THF     H6 2656   1.312   0.565   2.572  0.0232 -0.7477 -0.6287
  167THF     H7 2657   1.548   0.347   2.766  1.4133  0.1517 -2.2497
  167THF     H8 2658   1.557   0.427   2.612  0.2863 -1.8411 -0.2141
  168THF     C1 2659   1.642   0.710   3.188  0.5446  1.4715  0.0056
  168THF     C2 2660   1.518   0.623   3.203  0.4483 -0.3863 -0.1104
  168THF     C3 2661   1.504   0.603   3.358  0.1249  0.0048 -0.5416
  168THF     O1 2662   1.613   0.686   3.408  0.0144  0.6531  0.1464
  168THF     C4 2663   1.714   0.683   3.316  0.1218 -0.0146 -0.6044
  168THF     H1 2664   1.702   0.681   3.101  1.0039  3.0801 -0.2227
  168THF     H2 2665   1.631   0.817   3.170  1.4936  1.5070 -0.3827
  168THF     H3 2666   1.523   0.537   3.135  1.2423 -0.1462 -0.3612
  168THF     H4 2667   1.436   0.688   3.170  1.6920  1.6454  0.7245
  168THF     H5 2668   1.408   0.634   3.402 -0.2927 -1.4941 -0.3707
  168THF     H6 2669   1.521   0.500   3.392  1.0215  0.1999 -0.3751
  168THF     H7 2670   1.793   0.750   3.351  0.6843 -1.1759  0.4025
  168THF     H8 2671   1.760   0.583   3.320  1.3706  0.6149  1.6737
  169THF     C1 2672   1.998   3.234   2.827 -0.7326 -0.3968 -0.2850
  169THF     C2 2673   2.013   3.179   2.677  1.0480  0.2563  0.3468
  169THF     C3 2674   2.117   3.068   2.689  0.0811 -1.1642  0.3974
  169THF     O1 2675   2.129   3.043   2.829 -0.1953  0.9309  0.3076
  169THF     C4 2676   2.128   3.173   2.891  0.1121 -0.2754 -0.5759
  169THF     H1 2677   2.001   3.344   2.825  0.5824 -0.4451 -1.1108
  169THF     H2 2678   1.905   3.200   2.873 -0.8526  0.6759  0.3014
  169THF     H3 2679   2.034   3.258   2.604 -1.2455 -0.4819 -1.1816
  169THF     H4 2680   1.921   3.137   2.634  0.4845  1.6095  0.1962
  169THF     H5 2681   2.100   2.977   2.630 -1.4897 -0.7406  0.1771
  169THF     H6 2682   2.214   3.100   2.648 -1.2666  0.5045 -1.6119
  169THF     H7 2683   2.123   3.155   3.000  0.8646  1.4575 -0.2323
  169THF     H8 2684   2.220   3.229   2.874  0.2846 -0.7258 -1.1047
  170THF     C1 2685   1.234   0.259   3.290  0.1227  0.6159  0.5224
  170THF     C2 2686   1.380   0.233   3.232 -0.9369  0.2288 -0.1330
  170THF     C3 2687   1.375   0.287   3.086 -0.0162  0.1726 -0.0984
  170THF     O1 2688   1.249   0.351   3.079  0.1713 -0.3609 -0.4395
  170THF     C4 2689   1.198   0.384   3.211  0.0311  0.0241  0.6890
  170THF     H1 2690   1.173   0.173   3.259 -1.0294  2.2689 -1.9259
  170THF     H2 2691   1.221   0.259   3.399  0.3793 -2.0646  0.5971
  170THF     H3 2692   1.415   0.129   3.235 -1.0230  0.1916 -0.4159
  170THF     H4 2693   1.455   0.293   3.284 -1.3449  0.5424  0.1007
  170THF     H5 2694   1.457   0.354   3.057  1.6215 -1.6636  0.2093
  170THF     H6 2695   1.381   0.202   3.019  0.7851  0.1232  0.0239
  170THF     H7 2696   1.253   0.478   3.228 -1.0593  0.8710 -0.4050
  170THF     H8 2697   1.090   0.399   3.203  0.2339  1.5168  0.5056
  171THF     C1 2698   1.086   0.476   3.589 -0.6038 -0.1725 -0.0218
  171THF     C2 2699   0.984   0.483   3.474  0.3599 -0.0339  0.0233
  171THF     C3 2700   0.862   0.533   3.563 -0.6410  0.5739 -0.2569
  171THF     O1 2701   0.915   0.630   3.658  0.7641  0.8739  0.2860
  171THF     C4 2702   1.048   0.581   3.700 -0.1232  1.0894 -0.1956
  171THF     H1 2703   1.085   0.386   3.651  0.1948  1.5320  2.5985
  171THF     H2 2704   1.192   0.488   3.562 -0.4481  0.5291  0.8578
  171THF     H3 2705   0.971   0.388   3.422 -0.3625  0.5952 -0.9659
  171THF     H4 2706   0.995   0.559   3.396 -2.5265  2.2149  1.6915
  171THF     H5 2707   0.780   0.560   3.494  0.1188  2.0984 -0.5804
  171THF     H6 2708   0.816   0.451   3.620 -0.7966  0.6409 -0.2855
  171THF     H7 2709   1.124   0.661   3.694  0.6124  0.4812  0.7356
  171THF     H8 2710   1.041   0.535   3.799  0.6121  0.1335 -0.5868
  172THF     C1 2711   0.512   3.046   2.984 -0.3039  0.1540  0.1509
  172THF     C2 2712   0.647   3.103   3.034  0.2537  0.4537  0.1069
  172THF     C3 2713   0.650   3.060   3.182  0.8450  0.6008 -0.0770
  172THF     O1 2714   0.510   3.027   3.217 -0.0818  0.2940 -0.1536
  172THF     C4 2715   0.418   3.069   3.111 -0.2084 -0.6203 -0.7574
  172THF     H1 2716   0.474   3.087   2.890  1.7799 -1.1569 -1.3076
  172THF     H2 2717   0.528   2.942   2.953  2.1924  1.0326 -1.6334
  172THF     H3 2718   0.649   3.213   3.025  1.4636  0.4091 -0.3326
  172THF     H4 2719   0.725   3.065   2.967  0.1857 -0.5050  0.5629
  172THF     H5 2720   0.724   2.980   3.194  0.1812  0.3243  2.3958
  172THF     H6 2721   0.682   3.149   3.238  0.8388 -0.4841  1.6631
  172THF     H7 2722   0.332   3.001   3.117 -0.7682  0.0725 -0.9708
  172THF     H8 2723   0.382   3.172   3.114 -0.5010 -0.7050 -1.2541
  173THF     C1 2724   1.164   1.960   2.220 -0.1850 -0.7003 -0.9631
  173THF     C2 2725   1.244   2.091   2.260  0.2464 -0.2902 -0.3264
  173THF     C3 2726   1.252   2.075   2.414  0.3679 -0.5831 -0.9487
  173THF     O1 2727   1.176   1.955   2.446  0.3425  0.2474 -0.3777
  173THF     C4 2728   1.189   1.872   2.331  0.4961  0.1121 -0.1421
  173THF     H1 2729   1.056   1.981   2.213 -0.1706 -0.5931 -0.8534
  173THF     H2 2730   1.195   1.910   2.127  1.3836 -1.3153 -0.1170
  173THF     H3 2731   1.183   2.173   2.220  0.1880  0.5259  1.3963
  173THF     H4 2732   1.347   2.097   2.221  1.2464  0.1375  2.2652
  173THF     H5 2733   1.351   2.058   2.458  0.3234 -0.8947 -0.9688
  173THF     H6 2734   1.205   2.158   2.468  0.9368  0.5880 -2.2350
  173THF     H7 2735   1.294   1.841   2.327  1.4981  3.5869 -3.5537
  173THF     H8 2736   1.112   1.795   2.323 -1.8120  2.0929  2.1948
  174THF     C1 2737   1.527   0.879   2.256 -0.0166  0.2877 -1.0814
  174THF     C2 2738   1.396   0.963   2.275 -0.1613  0.1950  0.0493
  174THF     C3 2739   1.442   1.108   2.242 -0.3326  0.0997  0.0453
  174THF     O1 2740   1.574   1.098   2.197 -0.0544 -0.7819 -0.0759
  174THF     C4 2741   1.638   0.990   2.267  0.0583 -0.2580  0.1241
  174THF     H1 2742   1.539   0.805   2.337 -0.7643  0.4559 -0.8178
  174THF     H2 2743   1.532   0.821   2.163 -1.7067  0.0341 -1.0263
  174THF     H3 2744   1.349   0.948   2.373  0.2418  1.5087  0.4536
  174THF     H4 2745   1.324   0.920   2.205 -0.1016 -0.1342  0.1891
  174THF     H5 2746   1.381   1.149   2.160  1.0137 -0.8085 -1.4325
  174THF     H6 2747   1.443   1.173   2.331  0.3108  1.6186 -1.0474
  174THF     H7 2748   1.731   0.958   2.218 -0.2407 -1.5833  0.3931
  174THF     H8 2749   1.657   1.026   2.369  3.3156 -0.7202 -0.2709
  175THF     C1 2750   0.304   1.684   2.231  0.5251  0.3180 -0.4487
  175THF     C2 2751   0.280   1.669   2.383 -0.3717  0.4566 -0.3838
  175THF     C3 2752   0.424   1.634   2.435 -0.0776  0.0586 -0.0430
  175THF     O1 2753   0.500   1.731   2.361  0.8060  0.1558  0.1184
  175THF     C4 2754   0.447   1.735   2.227  0.3791 -0.6737  0.0967
  175THF     H1 2755   0.297   1.587   2.179  0.2031  1.0620 -1.8277
  175THF     H2 2756   0.223   1.747   2.194  0.0219 -0.9076 -1.4986
  175THF     H3 2757   0.206   1.589   2.395 -0.1458  0.4318  0.8262
  175THF     H4 2758   0.239   1.761   2.425  0.8311  1.2658 -0.9362
  175THF     H5 2759   0.438   1.643   2.543  1.2553 -0.6560 -0.1371
  175THF     H6 2760   0.461   1.538   2.396  0.0078 -0.0541  0.3194
  175THF     H7 2761   0.456   1.838   2.191  0.9071 -1.9195 -3.5546
  175THF     H8 2762   0.518   1.674   2.169  2.6843  0.2771  1.8196
  176THF     C1 2763   0.447   0.053   2.456  0.4571 -0.0091  0.5685
  176THF     C2 2764   0.477  -0.061   2.364 -0.2711 -0.2130 -0.3686
  176THF     C3 2765   0.421   0.001   2.228  0.1938  0.0822 -0.4279
  176THF     O1 2766   0.382   0.134   2.262  0.4392 -0.4378  0.2161
  176THF     C4 2767   0.321   0.129   2.399 -0.5345  0.2705 -0.1670
  176THF     H1 2768   0.438   0.013   2.558 -3.5097 -1.3615 -0.2123
  176THF     H2 2769   0.528   0.127   2.457 -1.4966  2.1915 -0.4614
  176THF     H3 2770   0.422  -0.153   2.388  1.1866 -0.1148  3.6703
  176THF     H4 2771   0.585  -0.075   2.354 -0.3681 -0.2022 -1.4416
  176THF     H5 2772   0.494   0.001   2.146 -0.5684  1.1728 -1.1127
  176THF     H6 2773   0.336  -0.060   2.193 -0.1771  0.6418 -0.5044
  176THF     H7 2774   0.295   0.229   2.435  1.9519 -0.7908  5.1061
  176THF     H8 2775   0.238   0.058   2.395 -1.2647  1.1794 -1.2945
  177THF     C1 2776   2.323   2.081   2.801 -0.1192 -0.1953 -0.4245
  177THF     C2 2777   2.430   2.077   2.910  0.6153 -0.0817 -0.9332
  177THF     C3 2778   2.361   2.017   3.036  0.1177  1.0307  0.1133
  177THF     O1 2779   2.228   2.063   3.021 -0.0306 -0.6791  0.4268
  177THF     C4 2780   2.191   2.057   2.881  0.2932  0.6423  0.3842
  177THF     H1 2781   2.323   2.180   2.754 -0.0426  0.7134  1.4186
  177THF     H2 2782   2.329   2.009   2.719 -0.2828 -0.7743  0.0768
  177THF     H3 2783   2.479   2.171   2.933  3.7488 -1.1998 -2.7438
  177THF     H4 2784   2.514   2.011   2.886 -0.0313 -0.0330 -3.5054
  177THF     H5 2785   2.361   1.908   3.028  2.7102  1.0843 -0.9716
  177THF     H6 2786   2.398   2.048   3.135 -2.9163  2.2961  0.9249
  177THF     H7 2787   2.148   1.960   2.854  1.3708  0.5572 -1.0758
  177THF     H8 2788   2.118   2.135   2.856 -0.6608 -0.4339 -0.2237
  178THF     C1 2789   3.339   0.431   2.281  1.0118 -0.7734  0.6461
  178THF     C2 2790   3.321   0.443   2.437 -0.2228  0.3703 -0.3790
  178THF     C3 2791   3.176   0.390   2.450  0.3937  0.8322 -0.2200
  178THF     O1 2792   3.167   0.276   2.359 -0.2147  0.4233  0.3831
  178THF     C4 2793   3.261   0.296   2.251 -0.1002  0.2502  0.7636
  178THF     H1 2794   3.293   0.510   2.220  1.4952 -1.8420 -1.1541
  178THF     H2 2795   3.443   0.423   2.249  1.4572  3.0147  0.8786
  178THF     H3 2796   3.338   0.542   2.482 -0.4448 -0.2430  1.0855
  178THF     H4 2797   3.386   0.375   2.493 -2.2277 -1.6420 -0.4262
  178THF     H5 2798   3.140   0.362   2.550  0.4064  1.2265 -0.1070
  178THF     H6 2799   3.108   0.460   2.400  0.4356 -0.0747 -1.6023
  178THF     H7 2800   3.330   0.211   2.255 -0.0336  0.2909  0.4420
  178THF     H8 2801   3.207   0.307   2.156  0.6542 -0.5677  0.2327
  179THF     C1 2802   1.759   1.641   2.797  0.4770 -0.4470 -0.5577
  179THF     C2 2803   1.914   1.645   2.793 -0.1535 -0.6434 -0.0399
  179THF     C3 2804   1.962   1.562   2.908 -0.3468 -0.4423 -0.5931
  179THF     O1 2805   1.832   1.511   2.957  0.0090  0.3597 -0.5518
  179THF     C4 2806   1.726   1.505   2.855 -0.0509 -0.3944 -0.0618
  179THF     H1 2807   1.711   1.713   2.863  2.1285  0.6832 -0.5804
  179THF     H2 2808   1.708   1.654   2.700 -1.4682  1.5727  0.6939
  179THF     H3 2809   1.963   1.743   2.784 -0.6634 -0.5255 -1.7020
  179THF     H4 2810   1.954   1.598   2.702 -0.0029  0.0658 -0.3450
  179THF     H5 2811   2.017   1.472   2.878 -3.1658 -2.4181 -0.1075
  179THF     H6 2812   2.012   1.620   2.987  0.2904 -0.1147 -1.2342
  179THF     H7 2813   1.738   1.421   2.785 -2.8891 -2.0212  1.3195
  179THF     H8 2814   1.626   1.504   2.901  0.0440 -0.9274  0.1293
  180THF     C1 2815   2.904   3.399   2.338 -0.3163 -0.1121  0.3014
  180THF     C2 2816   2.789   3.303   2.294  0.1809 -0.3802  0.1952
  180THF     C3 2817   2.679   3.406   2.272  0.2580 -0.0947  0.0170
  180THF     O1 2818   2.750   3.514   2.208  0.3046 -0.5293 -0.0692
  180THF     C4 2819   2.885   3.534   2.257 -0.3174  0.2770 -0.5916
  180THF     H1 2820   2.898   3.415   2.446 -0.7377  0.3567  0.2110
  180THF     H2 2821   2.996   3.349   2.305 -0.8055 -0.7301 -0.1478
  180THF     H3 2822   2.761   3.226   2.366 -2.5555  0.4461  0.0622
  180THF     H4 2823   2.806   3.251   2.199  0.0063  1.3688 -0.8091
  180THF     H5 2824   2.593   3.369   2.216  0.8096 -0.9988 -0.2371
  180THF     H6 2825   2.641   3.436   2.371  1.8495 -2.0076  1.2317
  180THF     H7 2826   2.956   3.543   2.174  0.8161  1.9304  0.5168
  180THF     H8 2827   2.906   3.627   2.313 -0.6000  0.8155 -1.3652
  181THF     C1 2828   2.458   2.949   3.672 -0.0133 -0.1239  0.3774
  181THF     C2 2829   2.372   2.854   3.594  0.2910  0.4803  0.1818
  181THF     C3 2830   2.463   2.780   3.489 -0.0247 -0.3128 -0.1830
  181THF     O1 2831   2.598   2.813   3.528  0.0788 -0.1876 -0.6828
  181THF     C4 2832   2.591   2.869   3.668  0.3529 -0.4884 -0.2692
  181THF     H1 2833   2.470   3.049   3.629 -2.7213  0.8047  1.6650
  181THF     H2 2834   2.414   2.957   3.772  0.9731  0.0834  0.8044
  181THF     H3 2835   2.280   2.900   3.555  1.0673  1.5210 -0.4645
  181THF     H4 2836   2.330   2.787   3.669 -0.2098  0.2256 -0.3206
  181THF     H5 2837   2.445   2.672   3.496  2.1801 -0.6730  0.4237
  181THF     H6 2838   2.450   2.820   3.388  0.5298  0.7237  0.1521
  181THF     H7 2839   2.582   2.788   3.741 -1.6013  0.8097  0.9451
  181THF     H8 2840   2.681   2.926   3.694  0.9403 -1.1892 -0.7378
  182THF     C1 2841   1.639   0.030   2.738 -1.0583 -0.4770  0.2502
  182THF     C2 2842   1.594  -0.003   2.879  0.4112  0.4827  0.0809
  182THF     C3 2843   1.712   0.036   2.974  0.0883  0.0105 -0.0015
  182THF     O1 2844   1.736   0.163   2.914  0.1048  0.1652  0.4017
  182THF     C4 2845   1.744   0.143   2.770 -0.2122 -0.2588  0.3936
  182THF     H1 2846   1.680  -0.043   2.667  0.6306 -1.1386  1.8437
  182THF     H2 2847   1.554   0.074   2.685 -2.4095  0.6160  3.2362
  182THF     H3 2848   1.571  -0.110   2.890  2.4392  0.1010  0.7694
  182THF     H4 2849   1.506   0.058   2.901  0.1383  0.4915 -1.0073
  182THF     H5 2850   1.690   0.051   3.080  1.0872 -2.0583  0.5103
  182THF     H6 2851   1.798  -0.030   2.958  0.2836 -0.2591  2.0919
  182THF     H7 2852   1.721   0.237   2.718 -1.4282 -0.0714  1.2277
  182THF     H8 2853   1.842   0.106   2.739 -0.4925 -0.5196 -0.1866
  183THF     C1 2854   2.745   1.170   2.910  0.4206 -0.3370  0.5410
  183THF     C2 2855   2.657   1.135   2.781  0.0232  0.4434  0.1156
  183THF     C3 2856   2.579   1.011   2.829 -0.2908  0.0275  0.0295
  183THF     O1 2857   2.679   0.930   2.898  0.4309  0.3691 -0.0712
  183THF     C4 2858   2.769   1.022   2.964 -0.1319  0.3322  0.8742
  183THF     H1 2859   2.840   1.217   2.880 -0.3083 -0.3094 -1.8515
  183THF     H2 2860   2.694   1.235   2.981  1.2315  1.5706 -0.5826
  183THF     H3 2861   2.723   1.116   2.696 -1.0863 -1.4514 -0.3418
  183THF     H4 2862   2.591   1.217   2.749 -2.5058 -1.1107  1.2409
  183THF     H5 2863   2.493   1.031   2.893 -1.2112 -1.6629 -0.6320
  183THF     H6 2864   2.537   0.963   2.740 -0.2847  0.2348 -0.0844
  183THF     H7 2865   2.751   0.999   3.070 -0.9480 -1.0753  0.4436
  183THF     H8 2866   2.873   0.994   2.941 -0.2608  1.3226 -1.0204
  184THF     C1 2867   2.715   1.997   0.407  0.8428  0.4552 -0.0087
  184THF     C2 2868   2.670   2.095   0.296  0.1056  0.1074  0.1875
  184THF     C3 2869   2.659   1.988   0.179  0.0607 -0.2767 -0.0849
  184THF     O1 2870   2.586   1.879   0.238 -0.4080 -0.2406 -0.1576
  184THF     C4 2871   2.607   1.883   0.383  0.4692 -0.1147 -0.1781
  184THF     H1 2872   2.814   1.951   0.398  1.1893  1.1034  0.4386
  184THF     H2 2873   2.710   2.041   0.507 -0.8042  0.7025 -0.1805
  184THF     H3 2874   2.737   2.179   0.275 -0.4092  0.2901 -0.7408
  184THF     H4 2875   2.571   2.138   0.316 -0.1836  1.0422 -2.9715
  184THF     H5 2876   2.604   2.031   0.094  2.8470  0.4255 -1.5864
  184THF     H6 2877   2.760   1.952   0.156 -1.0241 -3.7440  0.3061
  184THF     H7 2878   2.511   1.892   0.437  1.4445  0.8856  1.4317
  184THF     H8 2879   2.643   1.782   0.405  1.5397  0.3608  0.3001
  185THF     C1 2880   3.278   1.665   2.918  0.4544  0.2993 -0.2119
  185THF     C2 2881   3.140   1.617   2.896 -0.2041  0.0285  0.3423
  185THF     C3 2882   3.094   1.697   2.769  0.2262  0.3286 -0.3329
  185THF     O1 2883   3.214   1.739   2.703  0.7724 -0.2587 -0.1666
  185THF     C4 2884   3.287   1.783   2.818  0.2045  0.2563 -0.1622
  185THF     H1 2885   3.284   1.708   3.018  1.3958  0.1190 -0.1827
  185THF     H2 2886   3.351   1.585   2.905 -2.1973 -2.3279  0.5020
  185THF     H3 2887   3.094   1.656   2.987 -0.4301 -1.1926  0.7662
  185THF     H4 2888   3.135   1.508   2.889 -3.0034  0.1321  0.5002
  185THF     H5 2889   3.032   1.631   2.707 -1.1000 -0.7737  2.0568
  185THF     H6 2890   3.040   1.786   2.804 -0.1623  0.2389 -0.7018
  185THF     H7 2891   3.385   1.813   2.777 -0.0773  0.2831 -0.8288
  185THF     H8 2892   3.244   1.869   2.871 -1.8055 -1.4014  0.9870
  186THF     C1 2893   3.306   1.519   2.236  0.0762 -0.0881 -0.1555
  186THF     C2 2894   3.262   1.564   2.373 -0.1097 -0.1649  0.4153
  186THF     C3 2895   3.213   1.430   2.437 -0.5262 -0.6326  0.1656
  186THF     O1 2896   3.329   1.353   2.400  0.4278  0.1175 -0.8021
  186THF     C4 2897   3.360   1.375   2.259 -0.2011 -0.6297 -0.0222
  186THF     H1 2898   3.217   1.516   2.173 -0.4307  2.3906  0.4133
  186THF     H2 2899   3.384   1.575   2.184  1.5071 -2.3413 -0.5075
  186THF     H3 2900   3.187   1.643   2.371 -1.0940 -1.0957 -1.0652
  186THF     H4 2901   3.349   1.610   2.421 -0.7542  1.6875 -0.1679
  186THF     H5 2902   3.198   1.430   2.546  1.8087 -2.0830  0.5101
  186THF     H6 2903   3.128   1.391   2.379 -1.1611 -0.6224  1.0692
  186THF     H7 2904   3.467   1.365   2.233 -0.0800 -1.4822  0.7684
  186THF     H8 2905   3.304   1.311   2.191  0.8138 -1.3373 -0.2069
  187THF     C1 2906   0.988   2.563   3.755  0.5782 -0.1181  0.2183
  187THF     C2 2907   1.058   2.552   3.617  0.5321  0.1681 -0.2256
  187THF     C3 2908   1.136   2.415   3.620  0.3010 -0.2598  0.1758
  187THF     O1 2909   1.132   2.374   3.754 -0.0674  0.0174 -0.0145
  187THF     C4 2910   1.095   2.483   3.838  0.1259  0.2967 -0.4621
  187THF     H1 2911   0.989   2.669   3.783  0.5712  0.3014 -1.3713
  187THF     H2 2912   0.883   2.535   3.744  0.4046  0.2237  0.9635
  187THF     H3 2913   1.131   2.631   3.597 -1.5781  2.0686 -0.6712
  187THF     H4 2914   0.979   2.559   3.542  0.2672 -2.1674 -0.1800
  187THF     H5 2915   1.085   2.336   3.563  0.1251 -0.3612  0.4757
  187THF     H6 2916   1.240   2.438   3.592 -0.4070  2.0501 -0.7774
  187THF     H7 2917   1.048   2.447   3.930  1.0349  0.9404  0.2718
  187THF     H8 2918   1.179   2.546   3.869 -0.5390  0.3903  1.1885
  188THF     C1 2919   3.395   2.138   2.364  0.0237 -0.1428  0.6372
  188THF     C2 2920   3.331   2.030   2.455 -0.5739  0.3279 -0.6312
  188THF     C3 2921   3.198   1.987   2.391 -0.2568  0.0115 -0.5220
  188THF     O1 2922   3.206   2.046   2.262  0.3268 -0.2991  0.1800
  188THF     C4 2923   3.279   2.173   2.271  0.2092  0.1418 -0.2937
  188THF     H1 2924   3.439   2.225   2.413  0.2011 -0.6194  1.3265
  188THF     H2 2925   3.476   2.090   2.307 -1.3161 -1.7204 -0.0092
  188THF     H3 2926   3.297   2.080   2.546 -2.5815  1.2971 -1.8815
  188THF     H4 2927   3.391   1.941   2.474  1.6701  1.9481  0.0635
  188THF     H5 2928   3.191   1.879   2.376  1.9513  0.2080 -3.3452
  188THF     H6 2929   3.112   2.030   2.445  1.5704  0.2384  2.3063
  188THF     H7 2930   3.311   2.206   2.172 -3.4817  2.5357 -0.7604
  188THF     H8 2931   3.208   2.242   2.318 -0.4865 -0.4264 -0.5117
  189THF     C1 2932   0.776   1.588   2.278  0.8077  0.0821 -0.3346
  189THF     C2 2933   0.788   1.561   2.428 -0.5148 -0.6178  0.0028
  189THF     C3 2934   0.930   1.600   2.452  0.2651  0.0753  0.0156
  189THF     O1 2935   1.000   1.553   2.337  0.2235  0.0200 -0.5587
  189THF     C4 2936   0.919   1.593   2.222  0.4712 -0.6049  0.2807
  189THF     H1 2937   0.701   1.520   2.236  2.1607 -0.7879 -1.3779
  189THF     H2 2938   0.735   1.689   2.266  0.8066  0.0430 -0.6713
  189THF     H3 2939   0.771   1.453   2.435  0.5278 -0.8087 -0.3916
  189THF     H4 2940   0.708   1.610   2.485  0.1498 -1.8804  2.0909
  189THF     H5 2941   0.948   1.708   2.461 -3.4668  0.5532  2.9240
  189THF     H6 2942   0.962   1.554   2.546  0.2699 -0.9213 -0.4617
  189THF     H7 2943   0.945   1.690   2.179 -2.3908 -0.4626 -1.1727
  189THF     H8 2944   0.948   1.515   2.151 -0.4786 -0.2316 -0.5222
  190THF     C1 2945   1.698   3.193   0.104  0.2536 -0.1937  0.2178
  190THF     C2 2946   1.724   3.283  -0.025  0.3788 -0.1242 -0.3670
  190THF     C3 2947   1.855   3.361   0.015  0.1382 -0.1169 -0.3301
  190THF     O1 2948   1.828   3.391   0.154 -0.0980  0.5281  0.0647
  190THF     C4 2949   1.756   3.279   0.218 -0.2393  0.4972  0.2223
  190THF     H1 2950   1.590   3.177   0.116  0.4872  0.2314  3.0705
  190THF     H2 2951   1.753   3.099   0.091  0.3032 -0.1831  0.3528
  190THF     H3 2952   1.633   3.338  -0.051 -0.7484 -1.7463  0.0540
  190THF     H4 2953   1.738   3.212  -0.107  0.2163  0.4411 -0.8859
  190THF     H5 2954   1.943   3.298  -0.008 -2.0452 -2.8957 -1.3961
  190THF     H6 2955   1.873   3.453  -0.042 -4.4515 -0.8910 -3.2918
  190THF     H7 2956   1.833   3.222   0.271  1.4181  1.1982 -1.3980
  190THF     H8 2957   1.676   3.324   0.279  1.0576  1.3982  1.2955
  191THF     C1 2958   0.653   3.175   2.648 -0.3599 -0.5623  0.3008
  191THF     C2 2959   0.764   3.260   2.592 -0.8158  0.1227  0.1483
  191THF     C3 2960   0.888   3.224   2.683  0.4644 -1.2739  0.0611
  191THF     O1 2961   0.862   3.092   2.742 -0.5562 -0.0702  0.1430
  191THF     C4 2962   0.740   3.044   2.683  0.4583  0.5589  0.5461
  191THF     H1 2963   0.604   3.204   2.741 -0.1109  3.1794 -0.6524
  191THF     H2 2964   0.587   3.152   2.564 -1.2088  2.9463 -0.0268
  191THF     H3 2965   0.740   3.366   2.604  2.0172  0.9272 -0.9096
  191THF     H4 2966   0.779   3.253   2.483  0.4799  2.0926  0.1692
  191THF     H5 2967   0.988   3.235   2.641 -0.0776  0.5388 -0.7848
  191THF     H6 2968   0.880   3.285   2.774 -0.3928 -0.5122 -0.5237
  191THF     H7 2969   0.761   2.982   2.595  0.9460  0.4878  0.7078
  191THF     H8 2970   0.688   2.976   2.751 -0.3401  0.5156 -0.0971
  192THF     C1 2971   1.105   0.015   3.630 -0.5027  0.0173 -0.3742
  192THF     C2 2972   1.234   0.103   3.655 -0.6441  0.1572 -0.7017
  192THF     C3 2973   1.337   0.027   3.569 -0.5264 -0.0435  0.1032
  192THF     O1 2974   1.258  -0.013   3.456  0.4459  0.3545  0.1060
  192THF     C4 2975   1.131  -0.056   3.494 -0.0904 -0.1938  0.1549
  192THF     H1 2976   1.090  -0.056   3.712  1.8258  1.4647  1.3831
  192THF     H2 2977   1.019   0.084   3.631  0.1986  0.8990 -0.5426
  192THF     H3 2978   1.277   0.107   3.755 -1.9677  1.2370 -0.1541
  192THF     H4 2979   1.210   0.208   3.634 -0.9295  0.1799 -0.2740
  192THF     H5 2980   1.419   0.094   3.540  1.9770 -1.7335  2.9520
  192THF     H6 2981   1.384  -0.061   3.615 -0.5886  1.1201  2.4919
  192THF     H7 2982   1.071  -0.029   3.407  1.7622 -2.5498 -1.8932
  192THF     H8 2983   1.120  -0.165   3.496  0.6233 -0.2734 -0.2972
  193THF     C1 2984   1.575   0.968   2.758  0.3383 -0.2566 -0.2667
  193THF     C2 2985   1.517   0.984   2.902 -0.5890 -0.9340 -0.0757
  193THF     C3 2986   1.475   1.129   2.899  0.4066 -0.1069  0.2211
  193THF     O1 2987   1.515   1.185   2.773  0.0771 -0.8383  0.3264
  193THF     C4 2988   1.625   1.111   2.731 -0.0299  0.2129  0.0702
  193THF     H1 2989   1.651   0.890   2.745 -2.1568 -2.4707 -2.3392
  193THF     H2 2990   1.503   0.923   2.688  0.2891 -1.4083  0.5034
  193THF     H3 2991   1.600   0.965   2.971  0.2532  0.5956 -0.6372
  193THF     H4 2992   1.435   0.914   2.925  1.2236 -2.4138  2.0881
  193THF     H5 2993   1.367   1.141   2.911  0.2840 -0.9045 -0.0723
  193THF     H6 2994   1.516   1.188   2.981 -0.2181  0.7352 -0.0668
  193THF     H7 2995   1.652   1.146   2.630 -1.4551 -0.9004 -0.7232
  193THF     H8 2996   1.716   1.127   2.790 -0.2593 -0.6104  0.6571
  194THF     C1 2997   1.136   2.649   2.893 -0.5316 -0.1551  0.0097
  194THF     C2 2998   1.224   2.528   2.900 -0.2103  0.8012 -0.7425
  194THF     C3 2999   1.278   2.518   2.762  0.3983  0.3764 -0.2130
  194THF     O1 3000   1.285   2.657   2.710  0.2768 -0.2747 -0.2609
  194THF     C4 3001   1.229   2.744   2.807  0.2483 -0.0864  0.0124
  194THF     H1 3002   1.051   2.616   2.832 -0.7843 -0.4550  0.5220
  194THF     H2 3003   1.105   2.703   2.983 -1.3707  0.9357 -0.9088
  194THF     H3 3004   1.178   2.439   2.943  0.5323  0.2846 -0.9991
  194THF     H4 3005   1.301   2.563   2.970 -1.6643 -0.5431  1.5876
  194THF     H5 3006   1.375   2.470   2.748  1.4343  1.4722  2.8943
  194THF     H6 3007   1.213   2.466   2.690 -1.0549 -0.6250  1.7674
  194THF     H7 3008   1.310   2.789   2.866  0.2479  0.2651 -0.2490
  194THF     H8 3009   1.170   2.824   2.759 -1.3608 -0.2670  1.6628
  195THF     C1 3010   0.473   2.206   3.550 -0.0559 -0.2908 -0.0335
  195THF     C2 3011   0.504   2.353   3.582 -0.7923 -0.0097  0.0104
  195THF     C3 3012   0.651   2.337   3.632  0.0821  0.7572  0.3212
  195THF     O1 3013   0.704   2.255   3.533  0.4816 -0.2911  0.1360
  195THF     C4 3014   0.614   2.148   3.506 -0.5310 -0.0316  0.4150
  195THF     H1 3015   0.448   2.149   3.640  4.1795 -1.5742  0.4286
  195THF     H2 3016   0.398   2.189   3.472 -1.5665 -0.3335  1.3986
  195THF     H3 3017   0.433   2.388   3.657 -0.7481  1.4651 -0.6158
  195THF     H4 3018   0.493   2.417   3.494  1.4720  1.2478  0.6015
  195THF     H5 3019   0.710   2.425   3.658  0.4719  0.3946  0.6778
  195THF     H6 3020   0.644   2.283   3.728 -1.1671  3.2435  1.6796
  195THF     H7 3021   0.614   2.132   3.398 -3.0167  0.3902  0.3160
  195THF     H8 3022   0.641   2.053   3.554 -1.9070 -0.3782  0.5394
  196THF     C1 3023   1.773   2.802   2.286 -0.3410 -0.6695 -0.2048
  196THF     C2 3024   1.795   2.959   2.270 -0.4999 -0.0902  0.8077
  196THF     C3 3025   1.944   2.978   2.259  0.5117  0.1352 -0.4670
  196THF     O1 3026   1.997   2.847   2.231  0.2182 -0.2791  0.2224
  196THF     C4 3027   1.918   2.754   2.303  0.4002 -0.1263 -0.0559
  196THF     H1 3028   1.706   2.779   2.370  2.4342  0.5748  2.4278
  196THF     H2 3029   1.723   2.761   2.197  1.7036 -1.1186 -1.1665
  196THF     H3 3030   1.744   3.022   2.343  0.7182  0.6894  1.0036
  196THF     H4 3031   1.749   2.974   2.172  0.1535 -0.1850  0.4875
  196THF     H5 3032   1.964   3.063   2.192  1.8892 -0.2654 -0.5867
  196THF     H6 3033   1.983   3.007   2.357  0.9759  0.9416 -0.8787
  196THF     H7 3034   1.936   2.652   2.269 -1.2507  0.2788 -2.2439
  196THF     H8 3035   1.954   2.756   2.407 -0.5214 -1.2696  0.2905
  197THF     C1 3036   0.807   2.162   2.365 -0.2249  0.0027 -0.8151
  197THF     C2 3037   0.784   2.049   2.476 -0.3545  0.7294  0.0761
  197THF     C3 3038   0.698   1.949   2.404  0.3309  1.1464 -0.0699
  197THF     O1 3039   0.747   1.955   2.269 -0.4695  0.3756 -0.5178
  197THF     C4 3040   0.766   2.092   2.235  0.1967  0.3816 -0.5634
  197THF     H1 3041   0.735   2.243   2.384 -1.0212 -0.5877 -1.2876
  197THF     H2 3042   0.905   2.208   2.351 -0.1339 -0.1115 -0.5428
  197THF     H3 3043   0.736   2.084   2.569 -1.6328  0.7765 -0.5847
  197THF     H4 3044   0.878   2.002   2.506 -0.7384  0.2972  0.6031
  197THF     H5 3045   0.711   1.846   2.438 -0.1248  1.0599 -0.1574
  197THF     H6 3046   0.592   1.976   2.416  0.3102  1.8550 -1.6969
  197THF     H7 3047   0.840   2.108   2.156  2.0493  2.1008  1.4303
  197THF     H8 3048   0.667   2.116   2.195  0.1037  1.0892  0.0824
  198THF     C1 3049   2.420   3.012   2.302  0.4523 -0.2158 -0.4071
  198THF     C2 3050   2.402   3.164   2.261 -0.1571  0.5926 -0.4693
  198THF     C3 3051   2.251   3.175   2.277 -0.1305  0.0400  0.0090
  198THF     O1 3052   2.214   3.082   2.380  0.1443  0.0449  0.2988
  198THF     C4 3053   2.286   2.956   2.346  0.9132 -0.3518 -0.5675
  198THF     H1 3054   2.463   2.946   2.226 -1.5381  0.0639 -1.7964
  198THF     H2 3055   2.493   3.002   2.383  1.8936  0.2714 -1.6041
  198THF     H3 3056   2.430   3.175   2.156 -1.4396 -1.1882 -1.0019
  198THF     H4 3057   2.459   3.237   2.320  1.2714 -0.3228 -0.6802
  198THF     H5 3058   2.204   3.266   2.315 -2.4383 -0.7372 -0.8349
  198THF     H6 3059   2.201   3.150   2.182  0.1501  1.3800 -0.4953
  198THF     H7 3060   2.279   2.881   2.426  0.0382  2.8039  2.4514
  198THF     H8 3061   2.228   2.919   2.261  1.1119  0.3823 -1.0284
  199THF     C1 3062   3.134   1.358   3.341 -0.4523 -0.1023  0.7990
  199THF     C2 3063   2.988   1.311   3.365 -0.0639  0.5622 -0.2921
  199THF     C3 3064   2.930   1.294   3.225  0.0983 -0.1457  0.0274
  199THF     O1 3065   3.004   1.399   3.151 -0.6476  0.2359  0.0546
  199THF     C4 3066   3.101   1.468   3.236 -0.1679  0.1679  1.0126
  199THF     H1 3067   3.181   1.401   3.430 -0.9959  1.5720  0.2988
  199THF     H2 3068   3.199   1.276   3.308 -0.2853  0.0724  0.6959
  199THF     H3 3069   2.937   1.389   3.422 -1.7574 -0.0479 -0.9442
  199THF     H4 3070   2.989   1.214   3.418  4.1495  1.5320  1.6701
  199THF     H5 3071   2.944   1.193   3.184 -0.3476  0.0071 -0.5258
  199THF     H6 3072   2.823   1.318   3.213 -0.3730 -1.9785  0.4830
  199THF     H7 3073   3.187   1.497   3.175 -1.1580 -0.6680 -0.8082
  199THF     H8 3074   3.055   1.557   3.282  1.7270  1.1034  1.1224
  200THF     C1 3075   2.006   2.389   2.791  0.3946 -0.1830  0.4008
  200THF     C2 3076   1.942   2.419   2.923  0.1718 -0.1816 -0.2638
  200THF     C3 3077   1.797   2.437   2.871 -0.9477  0.2019 -0.0221
  200THF     O1 3078   1.815   2.517   2.751 -0.2512 -0.0509 -0.2134
  200THF     C4 3079   1.942   2.494   2.699  1.3958  0.5720 -0.5205
  200THF     H1 3080   2.114   2.408   2.804  0.6095 -1.2628  0.2506
  200THF     H2 3081   1.988   2.288   2.753  0.0476  0.1944 -0.4415
  200THF     H3 3082   1.968   2.509   2.981  0.9763 -0.8543  0.4406
  200THF     H4 3083   1.950   2.338   2.996  1.1391  0.3486  0.2328
  200THF     H5 3084   1.761   2.343   2.827  1.9427 -0.8235 -0.3201
  200THF     H6 3085   1.734   2.490   2.943  1.4225  4.0021 -0.6272
  200THF     H7 3086   1.943   2.452   2.597  1.8536 -1.0550  0.1383
  200THF     H8 3087   1.995   2.590   2.702 -1.7953  2.3936 -0.0954
  201THF     C1 3088   0.906   1.301   3.403  0.0654 -0.6956  0.2530
  201THF     C2 3089   0.760   1.321   3.361  0.1787  0.1135  0.4140
  201THF     C3 3090   0.757   1.261   3.214  0.0527 -0.0375  0.5311
  201THF     O1 3091   0.874   1.322   3.161 -0.5750 -0.1704  0.0686
  201THF     C4 3092   0.976   1.304   3.263 -0.9779 -0.3846 -0.1729
  201THF     H1 3093   0.949   1.389   3.451 -0.6827 -0.5554  0.6801
  201THF     H2 3094   0.919   1.209   3.461  0.9284 -0.7721 -0.0572
  201THF     H3 3095   0.734   1.427   3.353 -0.0846 -0.0468 -0.9915
  201THF     H4 3096   0.689   1.278   3.432  1.0089  1.5934  2.1764
  201THF     H5 3097   0.768   1.152   3.205 -1.7226 -0.0749 -1.8703
  201THF     H6 3098   0.665   1.292   3.163 -0.5974 -0.6177  1.3334
  201THF     H7 3099   1.035   1.215   3.238 -0.0321 -0.0260  0.7318
  201THF     H8 3100   1.045   1.389   3.261  0.4328 -1.5069  0.1548
  202THF     C1 3101   2.053   0.541   2.829  0.2026 -0.6363  0.6146
  202THF     C2 3102   1.935   0.444   2.834  0.8612  0.0720 -0.2326
  202THF     C3 3103   1.890   0.444   2.979  0.4108  0.3520 -0.5817
  202THF     O1 3104   1.906   0.583   3.014 -0.1743  0.0915  0.5218
  202THF     C4 3105   1.993   0.650   2.922  0.2997 -0.2184  0.6163
  202THF     H1 3106   2.136   0.476   2.859  0.8488 -0.0496  0.1218
  202THF     H2 3107   2.086   0.571   2.729  0.1670  1.3265  1.1620
  202THF     H3 3108   1.965   0.343   2.803  1.4422  0.0446  0.4256
  202THF     H4 3109   1.860   0.493   2.771  1.7346  1.7577  0.0169
  202THF     H5 3110   1.788   0.408   2.995  1.0834 -0.5312  2.0735
  202THF     H6 3111   1.950   0.387   3.051 -0.3145 -0.6822 -0.7947
  202THF     H7 3112   1.929   0.718   2.864  0.2184 -0.2852  0.6270
  202THF     H8 3113   2.079   0.700   2.967  0.6168 -0.1199 -0.0865
  203THF     C1 3114   2.916   0.655   3.759  0.0657 -0.0215 -0.1434
  203THF     C2 3115   2.922   0.802   3.815 -0.5361  0.1416 -0.1558
  203THF     C3 3116   2.774   0.818   3.857  0.6679 -0.0270  0.6763
  203THF     O1 3117   2.721   0.687   3.887  0.2620 -0.4666 -0.4085
  203THF     C4 3118   2.826   0.592   3.862  0.0190  0.1144  0.1389
  203THF     H1 3119   2.860   0.653   3.665  0.0456 -1.5625 -0.1105
  203THF     H2 3120   3.011   0.601   3.749 -0.4912 -1.1044  0.4088
  203THF     H3 3121   2.960   0.880   3.748  3.1727 -2.0203 -0.7306
  203THF     H4 3122   2.993   0.802   3.898 -0.0684 -0.4859 -0.5496
  203THF     H5 3123   2.774   0.871   3.952  0.1468  1.5553 -0.1986
  203THF     H6 3124   2.711   0.868   3.782  0.6776 -1.8011 -0.5667
  203THF     H7 3125   2.881   0.581   3.956  1.4502 -0.2536 -0.7359
  203THF     H8 3126   2.785   0.494   3.833  0.5009  0.3770 -1.4992
  204THF     C1 3127   0.798   0.461   2.680 -0.5677 -0.0226  0.1571
  204THF     C2 3128   0.698   0.577   2.688 -0.8399  0.0709  0.5323
  204THF     C3 3129   0.577   0.497   2.752  0.2565  1.4269  0.1509
  204THF     O1 3130   0.575   0.373   2.679  0.0157  0.7080 -0.6185
  204THF     C4 3131   0.708   0.338   2.646  0.0726 -0.4923  0.1157
  204THF     H1 3132   0.861   0.492   2.596 -0.4702 -0.9121 -0.1033
  204THF     H2 3133   0.852   0.451   2.775  0.6976  1.1640 -0.4205
  204THF     H3 3134   0.676   0.616   2.588 -0.7090 -1.5403 -0.1293
  204THF     H4 3135   0.739   0.660   2.748 -4.1251  2.0592  0.1834
  204THF     H5 3136   0.591   0.468   2.857 -2.1303  0.8416  0.3501
  204THF     H6 3137   0.480   0.545   2.732 -0.9075 -0.6536  0.6142
  204THF     H7 3138   0.741   0.253   2.708 -0.0591 -1.1283 -0.6682
  204THF     H8 3139   0.720   0.322   2.539 -2.3695 -0.2466 -0.2129
  205THF     C1 3140   2.158   1.290   3.750 -0.2081 -0.1844  0.1187
  205THF     C2 3141   2.100   1.300   3.897 -0.1775 -0.3983 -0.0110
  205THF     C3 3142   2.159   1.430   3.937  1.1250 -0.3206 -0.4728
  205THF     O1 3143   2.280   1.454   3.861 -0.5701 -0.0612  0.3672
  205THF     C4 3144   2.235   1.421   3.722 -0.4208  0.2772 -0.1952
  205THF     H1 3145   2.217   1.200   3.728 -0.0600 -0.2844  0.9335
  205THF     H2 3146   2.078   1.286   3.675  1.0318 -1.6185 -1.1751
  205THF     H3 3147   2.150   1.223   3.958  2.2044  0.4549 -0.8071
  205THF     H4 3148   1.991   1.292   3.906 -0.2949  0.3121 -0.7346
  205THF     H5 3149   2.091   1.513   3.916  1.0884 -0.3390 -0.4265
  205THF     H6 3150   2.174   1.426   4.046  0.6074 -1.0079 -0.4258
  205THF     H7 3151   2.168   1.503   3.693  1.1998  1.3960 -0.8345
  205THF     H8 3152   2.317   1.414   3.649 -0.3912 -2.1250  0.0277
  206THF     C1 3153   1.317   3.386   2.368 -0.7114  0.0420  0.0785
  206THF     C2 3154   1.335   3.319   2.502 -0.2087 -0.2245 -0.4951
  206THF     C3 3155   1.455   3.214   2.474 -0.4569  0.6890 -0.2234
  206THF     O1 3156   1.507   3.249   2.346 -0.1831 -0.7858 -0.0267
  206THF     C4 3157   1.394   3.298   2.271  0.5424 -0.0927 -0.3100
  206THF     H1 3158   1.216   3.404   2.331  0.1142  1.8722 -1.3327
  206THF     H2 3159   1.369   3.482   2.380 -0.2713 -0.2199  0.2905
  206THF     H3 3160   1.247   3.267   2.541  0.1762 -0.2711  0.3399
  206THF     H4 3161   1.363   3.391   2.580  1.6233  0.7901 -2.0565
  206THF     H5 3162   1.534   3.226   2.548  0.4725 -0.7375 -0.9763
  206THF     H6 3163   1.427   3.108   2.474 -0.8548  0.7902 -0.7194
  206THF     H7 3164   1.424   3.354   2.182 -1.5591  2.9613  0.8339
  206THF     H8 3165   1.339   3.210   2.235 -0.3288  0.7791 -1.1472
  207THF     C1 3166   3.041   2.643   0.020  0.5568 -0.0315  0.2180
  207THF     C2 3167   2.895   2.682  -0.042 -0.6667 -0.1190  0.1190
  207THF     C3 3168   2.863   2.560  -0.130  0.5816 -0.2596 -0.0347
  207THF     O1 3169   2.978   2.468  -0.112 -0.1293 -0.3321 -0.2490
  207THF     C4 3170   3.028   2.489   0.021  0.2646  0.6724 -0.0422
  207THF     H1 3171   3.126   2.674  -0.041 -0.0047 -0.7256 -0.9429
  207THF     H2 3172   3.054   2.688   0.119  0.3843 -0.3338  0.3801
  207THF     H3 3173   2.909   2.773  -0.101 -2.3537  0.6775  0.9083
  207THF     H4 3174   2.822   2.702   0.037 -0.7845 -1.4366  0.3546
  207THF     H5 3175   2.771   2.510  -0.097  1.5387 -1.8123  0.3339
  207THF     H6 3176   2.847   2.576  -0.237  0.7449 -0.2356 -0.0541
  207THF     H7 3177   2.955   2.442   0.089  3.0820 -1.3392  1.6718
  207THF     H8 3178   3.120   2.433   0.038 -0.2450  0.1275  1.0131
  208THF     C1 3179   2.904   1.128   2.270  0.0137  0.3863  0.0029
  208THF     C2 3180   2.852   1.269   2.273  0.3444  0.0613 -0.4132
  208THF     C3 3181   2.823   1.291   2.422  0.5798  0.0540  0.4964
  208THF     O1 3182   2.799   1.164   2.481 -0.1477  0.8281 -0.0558
  208THF     C4 3183   2.897   1.082   2.420 -0.4397 -0.5109  0.4358
  208THF     H1 3184   2.839   1.060   2.214  1.0099 -1.0913  0.5962
  208THF     H2 3185   3.003   1.119   2.224  1.0320 -3.1139  2.6863
  208THF     H3 3186   2.768   1.291   2.206  0.4698  1.3192 -0.1734
  208THF     H4 3187   2.934   1.335   2.243  0.1853  0.4863  0.0682
  208THF     H5 3188   2.890   1.356   2.480 -0.2900  2.1973 -0.8331
  208THF     H6 3189   2.724   1.338   2.427  0.7203  0.5963 -1.2368
  208THF     H7 3190   2.998   1.107   2.454 -0.6793  1.3609 -0.1802
  208THF     H8 3191   2.862   0.979   2.430 -2.5531  0.0987 -0.4011
  209THF     C1 3192   3.116   1.802   3.466  0.2969 -0.0615 -0.2675
  209THF     C2 3193   3.240   1.785   3.374  0.1157  0.2574 -0.1426
  209THF     C3 3194   3.314   1.665   3.446 -1.3887 -0.0926  0.6489
  209THF     O1 3195   3.255   1.659   3.583 -0.0585  0.1691 -0.0409
  209THF     C4 3196   3.115   1.690   3.569  0.4049  0.0330  0.3217
  209THF     H1 3197   3.094   1.900   3.510  2.1750  0.5048 -0.5328
  209THF     H2 3198   3.029   1.784   3.402  0.3437  1.5434 -0.8165
  209THF     H3 3199   3.314   1.863   3.357 -0.2502  0.8940  1.1342
  209THF     H4 3200   3.217   1.759   3.270  1.0758 -1.3002  0.0094
  209THF     H5 3201   3.296   1.568   3.398  0.7916  0.1514 -0.7238
  209THF     H6 3202   3.422   1.681   3.448 -1.6712  1.9158  0.8038
  209THF     H7 3203   3.052   1.606   3.535  1.2461 -0.9282  1.0775
  209THF     H8 3204   3.082   1.722   3.668 -3.1360 -1.4724 -0.3022
  210THF     C1 3205   2.198   1.541   3.235  0.1434  0.5171 -0.1708
  210THF     C2 3206   2.236   1.391   3.233 -0.2337 -0.3730 -0.1093
  210THF     C3 3207   2.373   1.390   3.305 -0.2207 -0.5418  0.0041
  210THF     O1 3208   2.356   1.493   3.405 -0.1567 -0.6306  0.1486
  210THF     C4 3209   2.237   1.566   3.384  0.4490 -0.4665  0.7143
  210THF     H1 3210   2.261   1.608   3.175  1.8164 -1.1408 -0.3028
  210THF     H2 3211   2.091   1.556   3.215  0.1432  1.9999  0.8481
  210THF     H3 3212   2.234   1.361   3.127  1.0449  0.7502 -0.4658
  210THF     H4 3213   2.162   1.325   3.279 -1.2657  0.1554 -0.9584
  210THF     H5 3214   2.389   1.291   3.348  2.7323 -0.4559 -0.8031
  210THF     H6 3215   2.462   1.415   3.245  0.4341 -0.5090  0.9827
  210THF     H7 3216   2.160   1.539   3.457  0.3937  0.9468  1.1987
  210THF     H8 3217   2.259   1.672   3.402 -1.5385 -0.1846  1.5821
  211THF     C1 3218   0.108   3.003   2.675  0.5580 -0.5583  0.6841
  211THF     C2 3219   0.228   2.908   2.656  0.6542 -0.4413  0.1179
  211THF     C3 3220   0.333   3.008   2.612  0.4322  0.3212  0.0343
  211THF     O1 3221   0.286   3.143   2.622 -0.3690  0.6662  0.1759
  211THF     C4 3222   0.169   3.133   2.712  0.1763  0.5788 -0.0835
  211THF     H1 3223   0.057   3.004   2.578  1.8025 -1.6590  0.0166
  211THF     H2 3224   0.039   2.974   2.756  0.4685 -1.4353  0.2920
  211THF     H3 3225   0.211   2.832   2.580  1.1075 -0.9776  0.5538
  211THF     H4 3226   0.245   2.852   2.748  0.8596  0.6101  0.7388
  211THF     H5 3227   0.416   3.014   2.684  3.0953 -1.7971 -2.7032
  211THF     H6 3228   0.368   2.995   2.509 -0.4177  0.2644 -0.2482
  211THF     H7 3229   0.206   3.133   2.815  0.0804 -3.4403  0.0555
  211THF     H8 3230   0.101   3.218   2.696 -1.9884 -1.2238 -0.8222
  212THF     C1 3231   0.495   2.883   2.260  0.3210  0.0365  0.2219
  212THF     C2 3232   0.468   3.034   2.255 -0.3299 -0.9769  0.3005
  212THF     C3 3233   0.614   3.074   2.254 -0.4038  0.2004 -0.8961
  212THF     O1 3234   0.665   2.993   2.361 -0.2126 -1.0339  0.1484
  212THF     C4 3235   0.604   2.868   2.365  0.0330  0.3797  0.9411
  212THF     H1 3236   0.413   2.812   2.277 -0.0629  0.6812  1.1052
  212THF     H2 3237   0.539   2.849   2.165  0.5682 -1.4354  0.8565
  212THF     H3 3238   0.423   3.078   2.344  0.0406 -0.3847  0.1941
  212THF     H4 3239   0.409   3.066   2.169  0.9467 -0.0302 -0.2270
  212THF     H5 3240   0.660   3.041   2.159  0.4478 -0.4339 -0.2770
  212THF     H6 3241   0.645   3.177   2.273 -0.6604 -0.1758  1.7088
  212THF     H7 3242   0.670   2.783   2.342 -0.7132  0.5026 -1.8364
  212THF     H8 3243   0.558   2.858   2.465  1.3042  3.1942  1.8392
  213THF     C1 3244   2.092   1.143   2.905 -0.7837 -0.1296 -0.0150
  213THF     C2 3245   2.196   1.078   2.805  0.1229  0.5859 -0.0257
  213THF     C3 3246   2.111   0.972   2.730  0.0265  0.1090 -0.3865
  213THF     O1 3247   1.990   0.965   2.802  0.3441 -0.1239  0.2810
  213THF     C4 3248   1.997   1.028   2.933  0.6787  0.6284 -0.4699
  213THF     H1 3249   2.150   1.171   2.993 -0.6203  2.2406 -0.8283
  213THF     H2 3250   2.034   1.226   2.862  0.5051  1.2470  0.8689
  213THF     H3 3251   2.277   1.030   2.861 -0.9468 -0.8503  0.3097
  213THF     H4 3252   2.241   1.157   2.743  2.0105 -0.5244 -0.0940
  213THF     H5 3253   2.093   1.017   2.631 -0.2371  0.0367 -0.3734
  213THF     H6 3254   2.155   0.872   2.727 -1.6746 -0.7806  2.3878
  213THF     H7 3255   1.898   1.060   2.969  1.1679  0.1563  1.3435
  213THF     H8 3256   2.044   0.957   3.003 -0.5281  2.2933  2.0906
  214THF     C1 3257   2.658   2.416   2.422  0.0381 -0.5511 -0.3051
  214THF     C2 3258   2.587   2.274   2.432 -0.5572  0.0718 -0.0873
  214THF     C3 3259   2.511   2.268   2.300  0.3105  0.5198  0.4249
  214THF     O1 3260   2.547   2.388   2.226  0.3569  0.2167 -0.1753
  214THF     C4 3261   2.670   2.430   2.276 -0.2466 -0.3139 -0.2452
  214THF     H1 3262   2.609   2.508   2.456  2.0885  0.6254 -0.4371
  214THF     H2 3263   2.756   2.413   2.472 -0.0603 -2.3745 -0.1864
  214THF     H3 3264   2.522   2.265   2.519 -0.0593  1.6741  0.4619
  214THF     H4 3265   2.664   2.196   2.439 -0.4042  0.2893  0.6082
  214THF     H5 3266   2.543   2.185   2.236 -1.5838 -1.0846  1.5166
  214THF     H6 3267   2.406   2.256   2.329  0.8417  1.6625  2.9557
  214THF     H7 3268   2.748   2.359   2.245  2.5126  0.3289  4.5925
  214THF     H8 3269   2.682   2.528   2.230 -0.3249 -0.0808  0.2226
  215THF     C1 3270   3.195   0.852   3.383 -0.3308 -0.2761  0.8561
  215THF     C2 3271   3.197   0.918   3.532  0.1172  0.0078 -0.3422
  215THF     C3 3272   3.317   1.016   3.513 -0.1013  0.2278  0.1150
  215THF     O1 3273   3.403   0.932   3.434 -0.3995  0.5800 -0.1844
  215THF     C4 3274   3.329   0.874   3.325  0.4306 -1.1889 -0.3872
  215THF     H1 3275   3.182   0.744   3.394 -1.4042 -0.2900 -0.4326
  215THF     H2 3276   3.117   0.891   3.318  2.2406  2.6534 -0.6077
  215THF     H3 3277   3.223   0.842   3.606 -3.7204 -0.7600  0.3517
  215THF     H4 3278   3.101   0.957   3.568 -0.6705 -0.3941 -1.9665
  215THF     H5 3279   3.295   1.114   3.469 -2.0683 -0.4385 -0.4616
  215THF     H6 3280   3.359   1.045   3.610 -0.0577 -1.1993  0.5266
  215THF     H7 3281   3.330   0.950   3.246 -1.2855  0.2313  0.9294
  215THF     H8 3282   3.381   0.783   3.291  0.2013 -2.1099  1.6222
  216THF     C1 3283   1.352   0.540   2.272 -0.0937 -0.2522  0.3364
  216THF     C2 3284   1.470   0.454   2.265  0.4001  0.5739  0.5485
  216THF     C3 3285   1.420   0.311   2.268  0.4014  0.5714 -1.0491
  216THF     O1 3286   1.293   0.315   2.208 -0.3246  0.9399  0.0057
  216THF     C4 3287   1.232   0.437   2.264 -0.0106  0.7401 -0.0874
  216THF     H1 3288   1.352   0.606   2.359 -3.3877 -0.1305  0.3204
  216THF     H2 3289   1.342   0.592   2.176  1.1642 -0.6236 -0.0060
  216THF     H3 3290   1.545   0.468   2.344 -1.1133 -0.9664  2.2790
  216THF     H4 3291   1.509   0.486   2.167 -0.7800  1.4144  0.3407
  216THF     H5 3292   1.491   0.238   2.227 -2.2949 -2.3038 -0.7307
  216THF     H6 3293   1.398   0.281   2.371 -2.5868 -0.0825 -1.8195
  216THF     H7 3294   1.149   0.474   2.203 -1.1638  1.5633  1.9518
  216THF     H8 3295   1.207   0.407   2.366  1.0278 -1.3394 -0.4003
  217THF     C1 3296   1.793   1.600   0.093 -0.1707 -0.6107 -0.1983
  217THF     C2 3297   1.732   1.590  -0.050 -0.6051  0.0083  0.2266
  217THF     C3 3298   1.585   1.578  -0.017 -0.3014 -0.3896 -0.1556
  217THF     O1 3299   1.569   1.668   0.095 -0.7692  0.1083 -0.2046
  217THF     C4 3300   1.674   1.634   0.187  0.3983 -0.2366 -0.0449
  217THF     H1 3301   1.838   1.502   0.112  0.2539 -0.1944  1.0131
  217THF     H2 3302   1.878   1.669   0.093 -0.4587 -0.2471  0.4636
  217THF     H3 3303   1.767   1.504  -0.108  1.7487  0.8367  0.3669
  217THF     H4 3304   1.732   1.682  -0.109 -3.9419 -0.3424 -0.4124
  217THF     H5 3305   1.525   1.596  -0.108  0.3907  0.5137 -0.4393
  217THF     H6 3306   1.565   1.477   0.019  0.8156 -1.4453 -2.3983
  217THF     H7 3307   1.694   1.725   0.246 -0.2687  0.9667 -1.6303
  217THF     H8 3308   1.641   1.553   0.252  0.7710 -2.3954 -2.4613
  218THF     C1 3309   1.711   2.861   2.650 -0.4880  0.3241  0.4547
  218THF     C2 3310   1.754   2.856   2.803  0.1010  0.4026 -0.0917
  218THF     C3 3311   1.605   2.844   2.857  1.2027  0.2902 -0.5442
  218THF     O1 3312   1.523   2.941   2.793  0.2351 -0.0435  0.2596
  218THF     C4 3313   1.582   2.955   2.656 -0.0518 -0.0544  0.2580
  218THF     H1 3314   1.792   2.893   2.583  0.6845 -2.9130  0.2578
  218THF     H2 3315   1.685   2.758   2.624  0.6016 -0.1574  1.1961
  218THF     H3 3316   1.799   2.950   2.836 -0.1457  0.9899 -1.3740
  218THF     H4 3317   1.815   2.770   2.831 -0.9448 -0.7449 -1.2464
  218THF     H5 3318   1.563   2.744   2.838  0.3426  0.4235  0.6367
  218THF     H6 3319   1.605   2.865   2.965  1.9537 -1.8534 -0.1059
  218THF     H7 3320   1.512   2.937   2.574 -1.1314 -3.2927  1.8049
  218THF     H8 3321   1.626   3.055   2.649  1.6822 -0.9175 -1.8675
  219THF     C1 3322   1.160   3.171   3.082 -0.4796  0.9181  0.4723
  219THF     C2 3323   1.013   3.155   3.048  0.5187  0.2075 -0.3828
  219THF     C3 3324   1.002   3.000   3.045  0.7412 -0.1344 -0.5283
  219THF     O1 3325   1.098   2.951   3.141 -0.4700 -0.3003 -0.6816
  219THF     C4 3326   1.218   3.027   3.118  0.0046 -0.2772 -0.2027
  219THF     H1 3327   1.220   3.214   3.001  0.9817  1.3011  1.7354
  219THF     H2 3328   1.181   3.245   3.160 -2.4941  1.0623  0.8883
  219THF     H3 3329   0.979   3.224   2.970  1.0824  0.9730  0.0473
  219THF     H4 3330   0.954   3.181   3.136 -0.6852  0.0326 -1.1203
  219THF     H5 3331   0.898   2.966   3.059  0.5244  0.2770 -1.1056
  219THF     H6 3332   1.043   2.956   2.953  0.6661 -2.8030  0.6504
  219THF     H7 3333   1.289   3.021   3.201  0.0131  2.8952  0.0963
  219THF     H8 3334   1.265   2.978   3.031 -1.4246  0.0986 -1.1992
  220THF     C1 3335   2.142   2.204   0.523 -0.2939 -0.1023 -0.3222
  220THF     C2 3336   2.276   2.148   0.579 -0.3447 -0.1124  0.0984
  220THF     C3 3337   2.376   2.259   0.528  0.2342  0.2570  0.3040
  220THF     O1 3338   2.326   2.278   0.397 -0.1415 -0.6196 -0.6996
  220THF     C4 3339   2.186   2.297   0.410 -0.1973  0.9338  0.2570
  220THF     H1 3340   2.082   2.124   0.478  0.0620  0.2309 -1.4099
  220THF     H2 3341   2.075   2.257   0.591 -2.0427 -1.0512 -1.2502
  220THF     H3 3342   2.286   2.050   0.530  0.5052  0.1060 -0.1631
  220THF     H4 3343   2.280   2.130   0.687  1.1309  2.9326  0.5923
  220THF     H5 3344   2.373   2.347   0.593 -1.5593 -0.9300  1.8981
  220THF     H6 3345   2.480   2.227   0.520 -0.6596 -2.9698  0.7121
  220THF     H7 3346   2.179   2.403   0.436  0.5845  0.8424  0.8366
  220THF     H8 3347   2.149   2.275   0.309  0.5142 -0.3120  0.2512
  221THF     C1 3348   1.858   1.907   3.326 -0.1639 -0.0324  0.0976
  221THF     C2 3349   1.891   1.925   3.478  0.7607  0.1143  0.4192
  221THF     C3 3350   1.963   1.796   3.520 -0.0607 -0.2150 -0.2512
  221THF     O1 3351   1.894   1.697   3.440 -0.1906  0.1999 -0.2190
  221THF     C4 3352   1.819   1.755   3.333 -0.1931 -0.1344 -0.3734
  221THF     H1 3353   1.783   1.976   3.285  1.7727  0.8302 -2.1800
  221THF     H2 3354   1.944   1.937   3.264  0.1593  0.0998  0.6089
  221THF     H3 3355   1.805   1.951   3.540  0.4457 -0.8088  0.3727
  221THF     H4 3356   1.959   2.007   3.504  0.6355  0.0909  0.8143
  221THF     H5 3357   2.070   1.811   3.500 -0.0343  0.1445  0.1545
  221THF     H6 3358   1.951   1.778   3.627  0.3132  0.4827 -0.0927
  221THF     H7 3359   1.831   1.688   3.247 -2.5604 -1.4226  0.2626
  221THF     H8 3360   1.712   1.745   3.352  0.0831 -1.1452  0.6606
  222THF     C1 3361   0.753   2.559   3.280 -0.6945  0.1761 -0.0890
  222THF     C2 3362   0.769   2.408   3.247  0.8344 -0.1136  0.0449
  222THF     C3 3363   0.913   2.376   3.280 -0.0881 -0.7300  0.8493
  222THF     O1 3364   0.970   2.499   3.222  0.7184  0.0060 -0.3264
  222THF     C4 3365   0.888   2.614   3.237 -0.1640 -0.1186 -0.5102
  222THF     H1 3366   0.676   2.594   3.210  0.1202 -0.6126 -1.4001
  222THF     H2 3367   0.741   2.578   3.387  0.7521  0.5378  0.0184
  222THF     H3 3368   0.743   2.382   3.144  1.2977 -2.0585  0.3941
  222THF     H4 3369   0.703   2.347   3.310  1.9544 -0.0619  1.2701
  222THF     H5 3370   0.927   2.373   3.389  1.9052 -0.2080  0.6291
  222THF     H6 3371   0.954   2.283   3.237 -1.5024  0.5887 -3.6258
  222THF     H7 3372   0.927   2.682   3.314 -0.8579 -0.4175  0.1155
  222THF     H8 3373   0.888   2.665   3.140 -0.2151 -0.1101 -0.5062
  223THF     C1 3374   1.768   1.345   3.409 -0.2365  0.0672  0.1742
  223THF     C2 3375   1.732   1.323   3.265  0.6090 -1.0687  0.0798
  223THF     C3 3376   1.860   1.262   3.203 -0.5337 -0.1495  0.4756
  223THF     O1 3377   1.895   1.170   3.308 -0.3789  0.2785 -0.6520
  223THF     C4 3378   1.877   1.233   3.439  0.3556 -0.5558 -0.1524
  223THF     H1 3379   1.816   1.443   3.415 -1.4404  0.7044 -0.3487
  223THF     H2 3380   1.688   1.350   3.485  0.3548 -1.5349  0.9438
  223THF     H3 3381   1.704   1.414   3.212 -1.7351 -1.3678  0.7154
  223THF     H4 3382   1.654   1.251   3.237  0.0328  0.0454 -1.2047
  223THF     H5 3383   1.848   1.204   3.110 -1.0520  1.5823 -0.5580
  223THF     H6 3384   1.939   1.336   3.183  0.4815 -1.9692 -2.7278
  223THF     H7 3385   1.845   1.159   3.514  2.2048 -2.1149 -0.8734
  223THF     H8 3386   1.972   1.274   3.475  0.6541 -0.2843 -1.2572
  224THF     C1 3387   0.614   2.482   2.729 -0.5292 -0.4113 -0.3222
  224THF     C2 3388   0.689   2.610   2.785 -0.1796 -0.1228  0.3392
  224THF     C3 3389   0.600   2.728   2.730 -0.1358  0.6991  0.8312
  224THF     O1 3390   0.479   2.674   2.678  0.4745  0.2268  0.2529
  224THF     C4 3391   0.469   2.541   2.737 -0.4780  0.0777 -0.4503
  224THF     H1 3392   0.640   2.468   2.624  0.5936 -0.7979  0.0011
  224THF     H2 3393   0.632   2.394   2.792 -2.4107 -0.4205  0.2611
  224THF     H3 3394   0.795   2.619   2.758 -0.3142  0.9515  0.1253
  224THF     H4 3395   0.702   2.599   2.894 -1.3691  1.8592  0.7196
  224THF     H5 3396   0.586   2.794   2.816  0.4707 -0.0535  1.5205
  224THF     H6 3397   0.646   2.785   2.648 -0.9647 -1.0794 -0.9052
  224THF     H7 3398   0.423   2.540   2.837 -0.0413  1.0361 -0.2352
  224THF     H8 3399   0.394   2.479   2.686 -1.1294 -0.0332  0.6388
  225THF     C1 3400   0.862   2.589   2.383 -0.1557  0.5067  0.1615
  225THF     C2 3401   0.934   2.506   2.491 -0.1813 -0.3129 -1.0043
  225THF     C3 3402   1.051   2.452   2.405 -0.7070 -0.5030  1.0898
  225THF     O1 3403   1.016   2.464   2.268  0.1648 -0.0461  0.1258
  225THF     C4 3404   0.955   2.592   2.259 -0.3856 -0.0620 -0.6356
  225THF     H1 3405   0.775   2.534   2.344 -0.5889  0.9611  0.4784
  225THF     H2 3406   0.821   2.679   2.429 -0.6345  0.3138  0.1195
  225THF     H3 3407   0.871   2.426   2.533 -0.1986 -0.4998 -1.3836
  225THF     H4 3408   0.978   2.569   2.569  1.0681 -2.0307 -0.2870
  225THF     H5 3409   1.142   2.506   2.433 -0.6625 -1.0274  1.9945
  225THF     H6 3410   1.073   2.350   2.439  0.5860 -0.3133  0.8309
  225THF     H7 3411   1.024   2.677   2.257 -1.5498  0.9250  0.4344
  225THF     H8 3412   0.901   2.591   2.164  2.5047  1.0492 -2.3250
  226THF     C1 3413   0.928   2.164   2.900 -0.3873  0.1275 -0.0802
  226THF     C2 3414   1.065   2.114   2.848 -0.2136  0.2460 -0.7237
  226THF     C3 3415   1.078   2.189   2.713 -0.1702 -0.1081 -0.5315
  226THF     O1 3416   1.017   2.311   2.744 -0.1700  0.9990  0.6130
  226THF     C4 3417   0.895   2.278   2.803 -0.8196  0.5015  0.6264
  226THF     H1 3418   0.838   2.102   2.910 -0.2806 -0.6736 -3.2851
  226THF     H2 3419   0.944   2.197   3.003  3.0754 -2.3015  0.2315
  226THF     H3 3420   1.086   2.007   2.844  3.3193  0.9183 -1.5107
  226THF     H4 3421   1.144   2.137   2.920  1.4570 -0.9711 -2.1242
  226THF     H5 3422   1.184   2.198   2.686 -0.1598  0.4293 -0.3341
  226THF     H6 3423   1.019   2.144   2.633  0.3963  0.8333 -1.4982
  226THF     H7 3424   0.852   2.359   2.863  3.4377  1.8769  1.9589
  226THF     H8 3425   0.829   2.250   2.719 -0.8649 -0.0546  0.8460
  227THF     C1 3426   2.221   2.585   2.366  0.0956 -0.0843 -0.0249
  227THF     C2 3427   2.187   2.553   2.221  0.6430 -0.8553 -0.4312
  227THF     C3 3428   2.091   2.430   2.242 -0.6828  0.0822 -0.0202
  227THF     O1 3429   2.161   2.354   2.344 -0.4557  0.1969  0.5260
  227THF     C4 3430   2.217   2.449   2.439 -0.7669  0.5124  0.1027
  227THF     H1 3431   2.313   2.644   2.380 -0.0905 -0.2343  1.8782
  227THF     H2 3432   2.147   2.655   2.406 -0.2649 -0.4053 -0.1424
  227THF     H3 3433   2.275   2.514   2.167  1.2298 -3.1713  2.1069
  227THF     H4 3434   2.148   2.635   2.159 -0.9207  0.0626  1.7201
  227THF     H5 3435   1.997   2.454   2.293  0.1075  0.9511  1.0678
  227THF     H6 3436   2.079   2.362   2.157  1.7387 -0.3373 -0.0697
  227THF     H7 3437   2.147   2.455   2.523  0.5517 -0.5793  1.3233
  227THF     H8 3438   2.311   2.404   2.476 -0.2303  1.8954  0.4480
  228THF     C1 3439   1.580   3.195   3.385 -0.1949  0.2916 -0.0986
  228THF     C2 3440   1.734   3.220   3.394  0.6033 -0.9537 -0.0036
  228THF     C3 3441   1.771   3.218   3.242  0.1377  0.1564  0.0868
  228THF     O1 3442   1.648   3.240   3.171  0.2714 -0.2657  0.3399
  228THF     C4 3443   1.539   3.273   3.259  1.0154 -0.6537  0.0542
  228THF     H1 3444   1.549   3.091   3.367 -1.6823  1.0106 -1.9182
  228THF     H2 3445   1.526   3.233   3.472  0.5825  0.8600  0.1300
  228THF     H3 3446   1.775   3.136   3.451  1.4577 -0.5988 -0.0862
  228THF     H4 3447   1.757   3.317   3.438 -1.1318  0.7898 -2.7726
  228THF     H5 3448   1.836   3.301   3.212 -1.3584  2.0126  1.8805
  228THF     H6 3449   1.825   3.128   3.210 -1.1391 -0.2280 -1.0706
  228THF     H7 3450   1.545   3.380   3.284  0.3527 -0.3713 -0.9959
  228THF     H8 3451   1.440   3.247   3.222  1.4997  0.5454 -2.1583
  229THF     C1 3452   2.558   0.437   2.694 -0.6186 -0.1356 -0.3862
  229THF     C2 3453   2.591   0.580   2.747  0.3458  0.3880  0.4761
  229THF     C3 3454   2.451   0.630   2.789 -0.1236  0.3897  0.3543
  229THF     O1 3455   2.361   0.570   2.691 -0.0241  0.2777 -0.3756
  229THF     C4 3456   2.428   0.459   2.622  0.3340  0.4961  0.1784
  229THF     H1 3457   2.632   0.394   2.627  2.0813  1.0713  1.7397
  229THF     H2 3458   2.553   0.358   2.770 -1.1315 -1.3889 -1.7158
  229THF     H3 3459   2.626   0.642   2.664  1.0688 -3.6919 -2.4574
  229THF     H4 3460   2.661   0.570   2.831  1.4879  0.9776 -0.4021
  229THF     H5 3461   2.427   0.600   2.891 -2.7860 -0.5605 -0.5137
  229THF     H6 3462   2.455   0.740   2.784  1.1606  0.3799  0.9430
  229THF     H7 3463   2.366   0.369   2.613  1.5487 -0.4109  0.6707
  229THF     H8 3464   2.458   0.496   2.523 -1.2643 -0.8427 -0.8477
  230THF     C1 3465   0.375   0.602   3.644  0.4549 -0.6657  0.2801
  230THF     C2 3466   0.358   0.454   3.593 -0.5834  0.0785  0.0546
  230THF     C3 3467   0.473   0.452   3.488 -0.0136  0.1931 -0.0390
  230THF     O1 3468   0.540   0.579   3.492  0.0135  0.2933  0.2936
  230THF     C4 3469   0.526   0.624   3.624 -0.6997 -0.3262 -0.1086
  230THF     H1 3470   0.323   0.673   3.579 -3.4330 -0.1286  3.8055
  230THF     H2 3471   0.342   0.618   3.747  0.3534  1.1873 -0.0278
  230THF     H3 3472   0.260   0.440   3.548 -0.0754 -0.6169 -0.8519
  230THF     H4 3473   0.371   0.393   3.683 -0.8426  1.4804  1.0602
  230THF     H5 3474   0.548   0.374   3.505  1.6271  1.8265  0.3774
  230THF     H6 3475   0.420   0.455   3.392  1.4300  0.2133 -0.8478
  230THF     H7 3476   0.593   0.570   3.692  0.9044  2.3689  0.5370
  230THF     H8 3477   0.552   0.731   3.624 -1.3156 -0.1731 -0.4277
  231THF     C1 3478   2.489   1.518   0.424  0.1664 -0.1107  0.1765
  231THF     C2 3479   2.584   1.456   0.530 -1.0865 -0.3304  0.6341
  231THF     C3 3480   2.665   1.364   0.440 -0.3245 -0.3558  0.3469
  231THF     O1 3481   2.705   1.459   0.340 -0.3227 -0.0203  0.2060
  231THF     C4 3482   2.583   1.520   0.298  0.2767  0.3017  0.0474
  231THF     H1 3483   2.403   1.458   0.394 -0.2995  0.4497  0.3646
  231THF     H2 3484   2.458   1.619   0.456  0.7108  0.4634 -1.0842
  231THF     H3 3485   2.529   1.406   0.612 -0.6034 -0.3781  0.9313
  231THF     H4 3486   2.650   1.534   0.570  0.3003 -0.2527 -1.7376
  231THF     H5 3487   2.753   1.309   0.477  1.3700  1.2842 -1.1347
  231THF     H6 3488   2.600   1.289   0.392 -3.2556  3.4854 -1.9467
  231THF     H7 3489   2.607   1.624   0.272  2.7032  0.0562  1.1977
  231THF     H8 3490   2.540   1.454   0.222 -1.1786  1.7439 -0.4157
  232THF     C1 3491   0.418   0.571   2.346 -0.3926 -0.3173 -0.0908
  232THF     C2 3492   0.281   0.569   2.273  0.0241 -0.0625 -0.4090
  232THF     C3 3493   0.255   0.713   2.230 -0.3556 -0.7591 -0.3827
  232THF     O1 3494   0.312   0.789   2.336  0.0512  0.0026 -0.1280
  232THF     C4 3495   0.437   0.727   2.370 -0.7377  0.6099  0.0507
  232THF     H1 3496   0.409   0.523   2.444 -1.7385  1.8042  0.8587
  232THF     H2 3497   0.498   0.516   2.295  0.6377  0.1060  1.0549
  232THF     H3 3498   0.209   0.538   2.350  2.5941 -1.4433  1.5499
  232THF     H4 3499   0.280   0.499   2.189 -1.3303  0.1364 -0.5736
  232THF     H5 3500   0.313   0.738   2.139 -0.1088  3.9926  0.9818
  232THF     H6 3501   0.147   0.728   2.224 -0.3862  0.1886  2.0187
  232THF     H7 3502   0.507   0.767   2.296  0.6854 -1.1146  0.4491
  232THF     H8 3503   0.468   0.760   2.470  0.3196 -1.4118  0.4134
  233THF     C1 3504   2.329   2.344   3.183 -0.2533 -0.0679  0.4128
  233THF     C2 3505   2.470   2.315   3.230 -0.4803 -0.1495  0.0189
  233THF     C3 3506   2.539   2.435   3.159 -0.1587  0.8878 -0.4211
  233THF     O1 3507   2.504   2.402   3.021  0.0267  0.0812 -0.8010
  233THF     C4 3508   2.359   2.378   3.030 -0.0265  0.2017 -0.0289
  233THF     H1 3509   2.261   2.259   3.191  1.2055 -1.3958 -1.1244
  233THF     H2 3510   2.287   2.430   3.236  2.2765  1.2409  0.3878
  233THF     H3 3511   2.514   2.221   3.196  1.2106  0.3053  0.8925
  233THF     H4 3512   2.475   2.320   3.339 -1.6353  0.4689  0.0434
  233THF     H5 3513   2.503   2.536   3.183  0.0046  0.6770  0.7442
  233THF     H6 3514   2.647   2.437   3.178 -0.1958 -1.8212  0.2969
  233THF     H7 3515   2.314   2.477   3.017  1.2245  0.6735 -0.8653
  233THF     H8 3516   2.314   2.315   2.952  1.7460 -0.5926 -0.4455
  234THF     C1 3517   1.443   2.525   2.438  0.3909  0.3295 -0.5331
  234THF     C2 3518   1.406   2.524   2.285  0.3630  0.3344 -0.0443
  234THF     C3 3519   1.406   2.376   2.252 -0.3200 -0.3877 -0.1352
  234THF     O1 3520   1.435   2.308   2.376  0.0215  0.1447  0.1325
  234THF     C4 3521   1.524   2.398   2.445 -0.5658  0.3939  0.4791
  234THF     H1 3522   1.505   2.611   2.465  0.2557 -0.2556  1.7647
  234THF     H2 3523   1.356   2.522   2.504  0.9151  1.0656  0.2045
  234THF     H3 3524   1.490   2.573   2.234  0.7473  0.8252  1.0382
  234THF     H4 3525   1.313   2.576   2.260  0.1688 -0.1016 -0.2391
  234THF     H5 3526   1.304   2.351   2.222 -0.8857 -0.1805  1.5876
  234THF     H6 3527   1.474   2.346   2.171 -0.9108  1.1328 -1.2210
  234THF     H7 3528   1.550   2.372   2.548 -0.8572  2.1500  1.0072
  234THF     H8 3529   1.617   2.399   2.386  0.3539  2.1076  1.9150
  235THF     C1 3530   3.092   2.163   0.045  0.2895  0.2277  0.3603
  235THF     C2 3531   3.087   2.155   0.195 -0.6978 -0.4300 -0.7359
  235THF     C3 3532   3.117   2.001   0.220 -0.2885 -0.3169 -0.3712
  235THF     O1 3533   3.201   1.967   0.108 -0.1236 -0.0740  0.3484
  235THF     C4 3534   3.135   2.019  -0.007 -0.3264  1.1884  0.0693
  235THF     H1 3535   2.993   2.173  -0.000 -0.0845 -1.9382  0.6472
  235THF     H2 3536   3.150   2.247   0.007  0.7121  1.1550  2.9458
  235THF     H3 3537   2.997   2.181   0.251 -1.1203  0.4596 -1.8040
  235THF     H4 3538   3.168   2.218   0.233 -2.6381  0.5386  1.9251
  235THF     H5 3539   3.184   1.990   0.306  0.4901 -1.4815 -1.1187
  235THF     H6 3540   3.024   1.945   0.239 -0.4096  0.0936  0.2431
  235THF     H7 3541   3.211   2.032  -0.085  1.5218  1.7738  1.8954
  235THF     H8 3542   3.054   1.953  -0.039 -2.8025  3.9764  0.3586
  236THF     C1 3543   0.432   2.499   2.230 -0.7054  0.8603  0.3934
  236THF     C2 3544   0.480   2.350   2.225  0.3159  0.3562 -0.3510
  236THF     C3 3545   0.427   2.301   2.373 -0.4212 -0.0754 -0.3662
  236THF     O1 3546   0.384   2.412   2.443  0.3440  0.1582  0.2225
  236THF     C4 3547   0.435   2.527   2.374  0.0462  0.2715  0.1625
  236THF     H1 3548   0.488   2.576   2.175 -1.1265  1.1275  0.3385
  236THF     H2 3549   0.327   2.513   2.201 -0.7824  0.9559  0.7175
  236THF     H3 3550   0.588   2.339   2.210  0.1522 -2.5267  0.2540
  236THF     H4 3551   0.435   2.290   2.146  0.6019 -1.5801  0.9125
  236THF     H5 3552   0.344   2.229   2.377 -0.4362  0.0361  1.7814
  236THF     H6 3553   0.506   2.253   2.431  1.9652  1.3443 -2.3753
  236THF     H7 3554   0.387   2.621   2.403  0.2790 -0.3532  2.6804
  236THF     H8 3555   0.539   2.542   2.406  0.0272 -0.3885  0.5603
  237THF     C1 3556   0.223   1.431   2.691 -0.0170 -0.0762 -0.0676
  237THF     C2 3557   0.294   1.422   2.828  0.3721  0.3720  0.3363
  237THF     C3 3558   0.182   1.356   2.908  0.0258 -0.5037  0.4093
  237THF     O1 3559   0.131   1.255   2.816 -0.2641  0.0095  0.1236
  237THF     C4 3560   0.134   1.307   2.687 -0.4900 -0.1381  0.4097
  237THF     H1 3561   0.160   1.520   2.687 -0.5996 -0.3293  2.4866
  237THF     H2 3562   0.286   1.436   2.601  0.0019 -0.2744 -0.0659
  237THF     H3 3563   0.321   1.520   2.868  1.3522  1.0214 -1.8737
  237THF     H4 3564   0.385   1.364   2.813 -0.3533 -0.5750 -0.4850
  237THF     H5 3565   0.214   1.316   3.004  0.6797 -0.0275  0.3926
  237THF     H6 3566   0.100   1.425   2.930  1.9270  1.9037  0.2858
  237THF     H7 3567   0.175   1.226   2.625  0.9195  1.1089 -0.3035
  237THF     H8 3568   0.031   1.322   2.652 -0.9533  0.7808  2.1296
  238THF     C1 3569   0.563   1.047   2.771  0.4378  0.0047  0.4644
  238THF     C2 3570   0.706   1.105   2.742 -0.6794 -0.4400  0.0450
  238THF     C3 3571   0.724   1.208   2.859  0.5536  0.3917  1.3337
  238THF     O1 3572   0.661   1.137   2.965 -0.2201  0.0456 -0.1256
  238THF     C4 3573   0.535   1.092   2.915 -0.4060 -0.9832  0.5589
  238THF     H1 3574   0.494   1.080   2.693  0.4660  1.6637  1.1311
  238THF     H2 3575   0.558   0.938   2.766 -0.6697  0.0314  0.8777
  238THF     H3 3576   0.710   1.156   2.645  0.6255 -0.4202  0.1015
  238THF     H4 3577   0.781   1.025   2.736  1.1548  1.1028  1.6088
  238THF     H5 3578   0.829   1.236   2.875  0.6851  0.0013  1.1477
  238THF     H6 3579   0.672   1.304   2.841  0.3891 -0.1318 -1.1600
  238THF     H7 3580   0.495   1.013   2.981  0.3634 -1.0987  0.8865
  238THF     H8 3581   0.462   1.174   2.915  0.1130 -0.5145  1.6260
  239THF     C1 3582   1.622   1.443   2.316 -0.0333  0.6865  0.5941
  239THF     C2 3583   1.484   1.513   2.295  0.1153  0.2471  0.2729
  239THF     C3 3584   1.474   1.588   2.434  0.0847  0.1440 -0.1989
  239THF     O1 3585   1.562   1.520   2.526 -0.6971  0.2591  0.3554
  239THF     C4 3586   1.618   1.407   2.457  0.0969 -0.5921 -0.6498
  239THF     H1 3587   1.636   1.357   2.250 -1.6824  1.3272 -0.6266
  239THF     H2 3588   1.713   1.504   2.309  0.2460  0.3263  1.0852
  239THF     H3 3589   1.400   1.442   2.297  1.4602 -1.3805  0.0894
  239THF     H4 3590   1.474   1.589   2.218 -1.9346  0.7833  1.0282
  239THF     H5 3591   1.517   1.687   2.415  3.8483 -1.3170  0.2393
  239THF     H6 3592   1.373   1.593   2.478 -0.5996 -0.9796 -1.5707
  239THF     H7 3593   1.719   1.391   2.496  0.4254  1.6939 -0.5026
  239THF     H8 3594   1.548   1.323   2.465  1.4996 -1.5018  2.7397
  240THF     C1 3595   0.934   0.869   2.964  0.3286 -0.2603 -0.0711
  240THF     C2 3596   0.901   0.734   3.027 -0.5187 -0.6377 -0.7259
  240THF     C3 3597   1.027   0.665   2.983  0.2830  0.1020  0.1714
  240THF     O1 3598   1.032   0.693   2.843 -0.3278 -0.1667  0.2267
  240THF     C4 3599   1.006   0.833   2.832  0.7954 -0.6355  0.0911
  240THF     H1 3600   0.853   0.938   2.939  0.1513 -1.4613 -3.0095
  240THF     H2 3601   1.004   0.924   3.028  1.6163 -0.9752 -0.8452
  240THF     H3 3602   0.812   0.689   2.982 -0.5202  0.7336 -2.1401
  240THF     H4 3603   0.892   0.732   3.136 -1.6743  0.3882 -0.7871
  240THF     H5 3604   1.122   0.697   3.027  1.3214  0.9222 -2.5463
  240THF     H6 3605   1.032   0.556   2.998  0.4368 -0.0463 -0.9373
  240THF     H7 3606   1.104   0.882   2.824 -0.0988  1.3495  0.9721
  240THF     H8 3607   0.950   0.856   2.741  0.7713 -1.1824 -0.0302
  241THF     C1 3608   0.432   2.438   0.511 -0.6728  0.2285 -0.3156
  241THF     C2 3609   0.279   2.403   0.497  0.6446  0.1868  0.4381
  241THF     C3 3610   0.213   2.444   0.635  0.3855 -0.2506 -0.4500
  241THF     O1 3611   0.315   2.516   0.695 -0.3426  0.6059  0.0548
  241THF     C4 3612   0.438   2.454   0.661  0.2696  0.5492  0.5859
  241THF     H1 3613   0.493   2.362   0.461 -1.9704 -1.8402  1.1707
  241THF     H2 3614   0.460   2.533   0.464  0.0665 -1.1932 -2.8397
  241THF     H3 3615   0.272   2.294   0.500 -4.5533  0.4311  0.6821
  241THF     H4 3616   0.237   2.451   0.408 -0.7155 -1.8025 -0.0078
  241THF     H5 3617   0.128   2.513   0.629  1.6353  1.2900 -0.7754
  241THF     H6 3618   0.178   2.355   0.688  1.2277  0.7224  1.7996
  241THF     H7 3619   0.520   2.520   0.694  2.8296 -1.4113 -1.6576
  241THF     H8 3620   0.457   2.364   0.722  1.4537 -0.2377 -0.8986
  242THF     C1 3621   2.770   2.919   2.267  0.1973 -0.2514  0.8332
  242THF     C2 3622   2.922   2.930   2.247  0.0930 -0.5372 -0.3775
  242THF     C3 3623   2.973   2.880   2.379 -0.1133 -0.0785  0.3959
  242THF     O1 3624   2.879   2.786   2.419  0.0594  0.3504 -0.2018
  242THF     C4 3625   2.752   2.847   2.402  0.0577  0.2334  0.3529
  242THF     H1 3626   2.731   3.022   2.261  1.8015  0.3083 -0.3134
  242THF     H2 3627   2.729   2.872   2.177 -1.2031 -2.3773  2.5231
  242THF     H3 3628   2.956   3.027   2.211 -3.8597  1.7822  1.7818
  242THF     H4 3629   2.959   2.852   2.180  3.1411  2.2997 -2.1555
  242THF     H5 3630   3.071   2.830   2.375 -0.6267 -1.0738  0.1909
  242THF     H6 3631   2.980   2.963   2.450  3.9704 -1.3135  1.6097
  242THF     H7 3632   2.677   2.766   2.403  1.0851 -0.7480 -0.9652
  242THF     H8 3633   2.728   2.923   2.478  0.8761 -0.3073  1.1621
  243THF     C1 3634   2.377   2.834   2.744 -0.7425  0.4182 -0.9555
  243THF     C2 3635   2.496   2.759   2.691  0.1404 -0.3791 -0.3885
  243THF     C3 3636   2.439   2.613   2.705 -0.0346 -0.2912 -0.2141
  243THF     O1 3637   2.299   2.619   2.710 -0.0620 -0.2350 -0.3243
  243THF     C4 3638   2.265   2.736   2.785 -0.3491 -0.1775  0.1466
  243THF     H1 3639   2.407   2.903   2.824 -2.5502  0.0544  0.0805
  243THF     H2 3640   2.341   2.898   2.663  0.9843  1.4108 -0.9594
  243THF     H3 3641   2.579   2.779   2.760 -0.3500 -0.5195  0.2486
  243THF     H4 3642   2.528   2.791   2.591 -1.3665  1.4585 -0.3055
  243THF     H5 3643   2.461   2.538   2.628  0.3229  1.3366 -1.7099
  243THF     H6 3644   2.464   2.560   2.799  1.4938  2.2449  0.8548
  243THF     H7 3645   2.162   2.774   2.776 -0.4944  0.0026  2.2450
  243THF     H8 3646   2.277   2.717   2.893  0.7527  0.0199  0.0542
  244THF     C1 3647   2.881   2.203   2.717 -0.3320  0.1247  0.1896
  244THF     C2 3648   2.748   2.156   2.774 -0.3292 -0.2182  0.5699
  244THF     C3 3649   2.788   2.016   2.817  0.1497 -0.0492  0.5837
  244THF     O1 3650   2.913   2.044   2.893 -0.2681  0.3792 -0.0282
  244THF     C4 3651   2.983   2.150   2.821 -0.0576  0.4590 -0.1559
  244THF     H1 3652   2.910   2.162   2.620  2.6745  1.2983  0.5271
  244THF     H2 3653   2.881   2.312   2.701 -2.0520  0.0141 -0.6358
  244THF     H3 3654   2.662   2.148   2.706 -2.3500 -0.5573  3.0814
  244THF     H4 3655   2.704   2.192   2.867 -2.5987 -0.9744 -0.1744
  244THF     H5 3656   2.716   1.961   2.879  0.1735  0.8178  1.3923
  244THF     H6 3657   2.823   1.968   2.725 -1.2005 -1.5134  0.8081
  244THF     H7 3658   3.019   2.216   2.900 -0.3968  1.1662 -0.5861
  244THF     H8 3659   3.067   2.102   2.769  0.1878  0.7932 -0.0687
  245THF     C1 3660   0.492   1.144   2.295 -0.0275 -0.1322 -0.1097
  245THF     C2 3661   0.469   1.288   2.317 -0.7142 -0.5747  0.0168
  245THF     C3 3662   0.334   1.314   2.255 -0.8212  0.4027 -0.3409
  245THF     O1 3663   0.265   1.189   2.285  0.3735  0.4278  0.0347
  245THF     C4 3664   0.357   1.085   2.300  0.4506  0.5895 -0.1083
  245THF     H1 3665   0.539   1.130   2.197  0.8657  1.8085  0.0148
  245THF     H2 3666   0.557   1.094   2.367  0.1248  0.2024 -0.0118
  245THF     H3 3667   0.542   1.344   2.258 -0.9517 -2.1379 -1.8042
  245THF     H4 3668   0.486   1.305   2.424  1.0363  0.4177 -0.4115
  245THF     H5 3669   0.283   1.392   2.312  0.3815  0.2374  0.9830
  245THF     H6 3670   0.335   1.330   2.147 -0.1787 -0.6412 -0.5009
  245THF     H7 3671   0.340   1.053   2.404 -0.5507 -1.0072 -0.7488
  245THF     H8 3672   0.340   1.008   2.224  0.9656 -1.0758  1.4175
  246THF     C1 3673   2.111   0.654   3.344  0.9877 -0.2657  0.5875
  246THF     C2 3674   2.144   0.736   3.214  0.2135  0.5060 -0.2426
  246THF     C3 3675   2.228   0.860   3.270  0.1137  0.5111  0.6153
  246THF     O1 3676   2.250   0.824   3.405  0.5352 -0.2187  0.0273
  246THF     C4 3677   2.135   0.757   3.452 -0.0246  0.1686 -0.2954
  246THF     H1 3678   2.010   0.613   3.338  0.5100  0.7715  1.5919
  246THF     H2 3679   2.170   0.562   3.356 -0.2710 -1.5746 -2.6344
  246THF     H3 3680   2.051   0.770   3.167 -0.1634  0.1293  0.2327
  246THF     H4 3681   2.204   0.674   3.146  1.7198  0.1163  1.3918
  246THF     H5 3682   2.329   0.855   3.228  0.4115  1.9785  1.1046
  246THF     H6 3683   2.185   0.960   3.260  0.4352  0.9981  3.5425
  246THF     H7 3684   2.147   0.706   3.549  1.4362 -1.2253 -1.1723
  246THF     H8 3685   2.051   0.825   3.468 -0.1363 -0.6052  2.6431
  247THF     C1 3686   1.101   0.499   1.037  0.8256  0.3094 -0.0106
  247THF     C2 3687   1.036   0.521   0.895  0.5006  0.3149  0.0929
  247THF     C3 3688   0.905   0.443   0.906 -0.1712 -0.4340 -0.7105
  247THF     O1 3689   0.866   0.451   1.053  0.0859  0.2508  0.0578
  247THF     C4 3690   0.993   0.431   1.130  0.2029 -0.1568  0.2603
  247THF     H1 3691   1.200   0.451   1.033  0.0528 -1.2915 -0.4141
  247THF     H2 3692   1.117   0.601   1.074  4.2066 -0.5350  1.0367
  247THF     H3 3693   1.103   0.485   0.816  0.3050  1.5859 -0.6606
  247THF     H4 3694   1.013   0.625   0.867 -0.9672  0.1417  0.6421
  247THF     H5 3695   0.817   0.474   0.847 -1.8401 -2.7179  0.5030
  247THF     H6 3696   0.925   0.339   0.881  2.9023 -0.1213  0.2724
  247THF     H7 3697   0.984   0.475   1.230 -2.0706 -0.4542  0.2284
  247THF     H8 3698   1.021   0.326   1.136 -0.2698 -0.4745 -2.3385
  248THF     C1 3699   1.433   1.209   3.654  0.5235 -0.5993 -0.3204
  248THF     C2 3700   1.537   1.089   3.697  0.4668  0.0645  0.8382
  248THF     C3 3701   1.440   0.962   3.699 -0.1858  0.2027 -0.0009
  248THF     O1 3702   1.312   1.009   3.649  0.0174 -0.1389  0.3209
  248THF     C4 3703   1.330   1.133   3.569 -0.5252  0.5057 -0.4438
  248THF     H1 3704   1.384   1.246   3.744  1.8854  1.2445 -0.3193
  248THF     H2 3705   1.479   1.287   3.593 -3.5798  2.4065  0.2199
  248THF     H3 3706   1.586   1.101   3.795  0.2106  0.0479  0.9675
  248THF     H4 3707   1.615   1.076   3.621  1.8572 -0.2719  2.2887
  248THF     H5 3708   1.472   0.883   3.631  1.8608  0.5071  0.5700
  248THF     H6 3709   1.426   0.921   3.800  2.2235 -2.0275 -0.5166
  248THF     H7 3710   1.369   1.114   3.469 -1.2178  1.3962 -0.8941
  248THF     H8 3711   1.236   1.189   3.557 -0.4285  1.4553  2.7710
  249THF     C1 3712   3.171   2.664   3.409  0.1888 -0.0217  0.7983
  249THF     C2 3713   3.273   2.640   3.519 -0.0491  0.7875  0.0283
  249THF     C3 3714   3.401   2.608   3.436  0.4994  0.4203  0.3973
  249THF     O1 3715   3.398   2.711   3.339 -0.3381 -0.5197  0.6413
  249THF     C4 3716   3.267   2.724   3.293  0.7106  0.0612  0.9648
  249THF     H1 3717   3.140   2.561   3.389 -0.6859  0.2899  0.5444
  249THF     H2 3718   3.085   2.726   3.437 -1.7625 -3.1192  1.9323
  249THF     H3 3719   3.252   2.552   3.582 -0.4884 -0.5660 -1.9681
  249THF     H4 3720   3.300   2.729   3.576 -0.7069  0.2049  1.2962
  249THF     H5 3721   3.491   2.608   3.499  1.9155 -2.7158 -1.5435
  249THF     H6 3722   3.398   2.512   3.383  0.9230 -0.3720  1.7836
  249THF     H7 3723   3.236   2.829   3.293 -0.4529 -0.2588 -0.3799
  249THF     H8 3724   3.249   2.679   3.194 -0.2832  1.6454  0.4142
  250THF     C1 3725   0.379   0.053   3.673  1.0799  0.0013  0.8994
  250THF     C2 3726   0.291   0.043   3.802  0.8205 -0.1726 -0.2002
  250THF     C3 3727   0.368  -0.064   3.876  0.7540 -0.5565  0.1019
  250THF     O1 3728   0.391  -0.155   3.769  0.3433  0.4975  0.6876
  250THF     C4 3729   0.447  -0.087   3.663  0.1203 -0.8714 -0.5393
  250THF     H1 3730   0.312   0.053   3.586 -1.2897 -0.1527  2.6882
  250THF     H2 3731   0.453   0.133   3.661  1.1668 -0.2367 -0.1929
  250THF     H3 3732   0.192   0.003   3.774  1.0631 -0.8442 -0.1180
  250THF     H4 3733   0.271   0.134   3.860 -0.9888 -0.4578 -0.3390
  250THF     H5 3734   0.468  -0.040   3.916  1.5974 -3.1309 -0.3962
  250THF     H6 3735   0.314  -0.120   3.953 -1.2920  0.0263 -0.8686
  250THF     H7 3736   0.556  -0.074   3.669 -0.1407  1.2696 -0.1698
  250THF     H8 3737   0.411  -0.132   3.570  1.3873 -1.9763 -0.5210
  251THF     C1 3738   1.472   2.341   3.228  0.1019 -0.3078  0.2159
  251THF     C2 3739   1.470   2.204   3.305 -0.5658  0.2911 -0.1057
  251THF     C3 3740   1.458   2.105   3.189 -0.1255 -0.4170  0.0444
  251THF     O1 3741   1.535   2.158   3.082 -0.5264 -0.5207  0.1089
  251THF     C4 3742   1.503   2.303   3.080  0.2234  0.6716 -0.2002
  251THF     H1 3743   1.373   2.387   3.232  1.4587  2.6756  1.0526
  251THF     H2 3744   1.541   2.418   3.264 -1.2632  0.1406  1.9481
  251THF     H3 3745   1.385   2.210   3.373 -0.6765  0.2429 -0.2405
  251THF     H4 3746   1.562   2.206   3.364 -1.5295 -3.2013  1.6232
  251THF     H5 3747   1.498   2.006   3.215 -0.1118 -0.3716  0.1952
  251THF     H6 3748   1.353   2.105   3.156 -0.2926 -1.0612  0.5574
  251THF     H7 3749   1.584   2.361   3.035 -0.9215  1.6743 -1.0162
  251THF     H8 3750   1.410   2.311   3.021  0.0464 -1.3943 -0.2229
  252THF     C1 3751   1.650   2.068   2.306  0.0827 -0.3896  0.5353
  252THF     C2 3752   1.758   2.178   2.317 -0.4506 -0.2425  0.2855
  252THF     C3 3753   1.893   2.114   2.267 -0.0567 -0.0288 -0.5409
  252THF     O1 3754   1.857   1.975   2.238  0.2417  0.7045 -0.4860
  252THF     C4 3755   1.748   1.945   2.331 -0.4337 -0.2134  0.2269
  252THF     H1 3756   1.580   2.094   2.386 -0.0535 -1.3128  0.7192
  252THF     H2 3757   1.608   2.055   2.205  1.1677 -0.3909  0.0790
  252THF     H3 3758   1.777   2.203   2.422  0.2609  1.0350 -0.1490
  252THF     H4 3759   1.743   2.271   2.263  1.2549 -0.1474 -0.0407
  252THF     H5 3760   1.919   2.171   2.177 -0.2465  2.0005  0.6659
  252THF     H6 3761   1.971   2.124   2.343 -0.3627 -1.0758 -0.0796
  252THF     H7 3762   1.709   1.846   2.303 -2.0938  0.0010  1.6813
  252THF     H8 3763   1.784   1.951   2.434  1.4447  0.0318 -0.4222
  253THF     C1 3764   1.578   2.088   2.717 -0.2703  0.8668  0.4850
  253THF     C2 3765   1.643   1.989   2.808 -0.2382 -0.0626 -0.1110
  253THF     C3 3766   1.527   1.899   2.845 -0.1285 -0.0488 -0.2841
  253THF     O1 3767   1.424   1.988   2.880  0.3883  0.4509 -0.0908
  253THF     C4 3768   1.433   2.089   2.784  0.4667 -0.6363  0.2076
  253THF     H1 3769   1.630   2.185   2.715  1.2473  0.0514 -1.8310
  253THF     H2 3770   1.575   2.050   2.615 -0.1415 -0.0419  0.8161
  253THF     H3 3771   1.671   2.045   2.898  0.1574  0.9487 -0.8492
  253THF     H4 3772   1.731   1.938   2.768  0.0499  0.1594  0.2392
  253THF     H5 3773   1.497   1.829   2.766 -0.1123 -2.0182  1.3966
  253THF     H6 3774   1.556   1.837   2.931 -0.0243  0.0863 -0.2224
  253THF     H7 3775   1.355   2.078   2.708  1.4878 -3.0431 -0.5243
  253THF     H8 3776   1.421   2.184   2.838  2.5293 -0.4217  0.3152
  254THF     C1 3777   1.218   1.464   2.713  0.4456 -0.1468  0.5170
  254THF     C2 3778   1.089   1.490   2.802 -0.1238 -0.0371  0.7500
  254THF     C3 3779   1.148   1.562   2.930  0.8286  0.4482 -0.0639
  254THF     O1 3780   1.256   1.635   2.885  0.0709  0.2672  0.2338
  254THF     C4 3781   1.328   1.543   2.790  0.8130 -0.4081 -0.0054
  254THF     H1 3782   1.241   1.358   2.702  0.0606 -0.2372  0.5467
  254THF     H2 3783   1.205   1.507   2.614 -1.3358 -2.7534 -0.4311
  254THF     H3 3784   1.032   1.400   2.830 -1.5798  0.1989 -1.3346
  254THF     H4 3785   1.031   1.564   2.745 -0.8095 -2.0811 -1.2852
  254THF     H5 3786   1.075   1.629   2.976  1.6057  1.5554 -0.4381
  254THF     H6 3787   1.181   1.480   2.995 -0.5969 -1.0347 -1.1578
  254THF     H7 3788   1.390   1.611   2.730 -0.0317  1.4711  1.2109
  254THF     H8 3789   1.395   1.478   2.847  3.1491 -0.9207 -3.1941
  255THF     C1 3790   2.718   1.828   3.150  0.1612 -0.2933 -0.3302
  255THF     C2 3791   2.838   1.731   3.122  0.2940  0.8332  0.5571
  255THF     C3 3792   2.767   1.592   3.144 -0.0877  0.0669  0.6904
  255THF     O1 3793   2.634   1.603   3.088  0.1549 -0.0969  0.4342
  255THF     C4 3794   2.601   1.746   3.079  0.2322  1.0225  0.1964
  255THF     H1 3795   2.706   1.838   3.259  0.1949 -0.1093 -0.3434
  255THF     H2 3796   2.729   1.926   3.102 -1.4870  1.2286  2.2182
  255THF     H3 3797   2.926   1.743   3.186 -0.2372  1.7855  1.1181
  255THF     H4 3798   2.870   1.741   3.017  0.7068 -0.9615  0.4898
  255THF     H5 3799   2.818   1.513   3.088  0.3140  0.6014  0.2959
  255THF     H6 3800   2.750   1.556   3.246  1.3293  0.1621  0.9639
  255THF     H7 3801   2.592   1.783   2.976 -2.8119 -3.5836 -1.3328
  255THF     H8 3802   2.498   1.744   3.116 -0.4022  2.3295 -1.4545
  256THF     C1 3803   0.349   1.909   2.652  0.2733  0.3645 -0.1805
  256THF     C2 3804   0.284   2.028   2.725 -0.0471  0.2505 -0.2416
  256THF     C3 3805   0.404   2.121   2.743 -0.3260 -0.2869 -0.0242
  256THF     O1 3806   0.503   2.030   2.783  0.3786  0.4953  0.6326
  256THF     C4 3807   0.484   1.907   2.720 -0.4825  0.2087 -0.4435
  256THF     H1 3808   0.296   1.814   2.664 -1.3549  1.0418 -1.9158
  256THF     H2 3809   0.374   1.914   2.546 -0.0732  0.1445 -0.2732
  256THF     H3 3810   0.239   2.001   2.821  0.9156 -0.9291 -0.1102
  256THF     H4 3811   0.205   2.078   2.669 -0.0950  1.6106  1.0231
  256THF     H5 3812   0.431   2.162   2.645 -0.9563  1.0419  0.3470
  256THF     H6 3813   0.388   2.201   2.816  0.5270 -0.6303  0.5457
  256THF     H7 3814   0.563   1.876   2.649  0.5047  0.7789  0.3906
  256THF     H8 3815   0.478   1.837   2.804  0.0424  0.1602 -0.4430
  257THF     C1 3816   1.016   2.958   2.346 -0.1377  0.4031 -0.0744
  257THF     C2 3817   1.105   2.888   2.452 -0.3040  0.1637  0.6324
  257THF     C3 3818   1.245   2.885   2.390  0.0398  0.1423 -0.1690
  257THF     O1 3819   1.242   2.984   2.292  0.3709  0.7061 -0.2568
  257THF     C4 3820   1.112   2.972   2.227 -0.2972  0.5556  0.5218
  257THF     H1 3821   0.921   2.909   2.323 -0.6030  1.1802  0.1925
  257THF     H2 3822   0.979   3.056   2.376 -0.3736  0.5318 -0.7716
  257THF     H3 3823   1.089   2.781   2.467  1.9142 -0.2626  0.2109
  257THF     H4 3824   1.107   2.947   2.544 -0.4069 -1.1378  1.4838
  257THF     H5 3825   1.330   2.899   2.458 -1.3545 -0.9142  1.8487
  257THF     H6 3826   1.251   2.789   2.337  1.5176  0.7000 -1.0349
  257THF     H7 3827   1.099   3.055   2.156  0.8791  0.1285 -0.2144
  257THF     H8 3828   1.125   2.875   2.177  0.0620  1.5381 -1.3316
  258THF     C1 3829   2.146   2.768   3.275  0.1141  0.2680  0.5153
  258THF     C2 3830   2.167   2.871   3.151  0.5543  0.5735 -0.3695
  258THF     C3 3831   2.044   2.849   3.064 -0.6321  0.1213 -0.5648
  258THF     O1 3832   1.942   2.790   3.156 -0.5546  0.3955  0.0203
  258THF     C4 3833   2.012   2.697   3.237 -0.0879  0.0309 -0.2563
  258THF     H1 3834   2.225   2.693   3.282  1.4411  1.2244 -2.7642
  258THF     H2 3835   2.145   2.814   3.374  2.9225  0.0980  0.6483
  258THF     H3 3836   2.262   2.859   3.098  0.7447  3.0348 -0.6436
  258THF     H4 3837   2.167   2.971   3.196  2.1524 -0.2694  1.5558
  258THF     H5 3838   2.007   2.936   3.008  0.1928  0.6227 -0.3359
  258THF     H6 3839   2.072   2.776   2.988  2.9394 -1.2746  1.9562
  258THF     H7 3840   1.945   2.682   3.323  1.3573 -1.2501  0.6740
  258THF     H8 3841   2.036   2.612   3.172  0.5739 -0.1342  0.1959
  259THF     C1 3842   1.927   1.160   2.386 -0.1721  0.1848 -0.0390
  259THF     C2 3843   2.081   1.169   2.386 -0.2367  0.6660  0.2592
  259THF     C3 3844   2.104   1.175   2.235 -0.0782  0.2458 -0.2139
  259THF     O1 3845   2.010   1.274   2.194  0.6591 -0.0978  0.1283
  259THF     C4 3846   1.890   1.255   2.271 -0.3329  0.0907  0.9904
  259THF     H1 3847   1.885   1.063   2.358 -3.5310  1.2653  0.9683
  259THF     H2 3848   1.876   1.177   2.481 -1.8519  0.6215 -0.9902
  259THF     H3 3849   2.130   1.085   2.436 -3.1718 -2.5703 -2.0693
  259THF     H4 3850   2.111   1.271   2.414  1.9734  0.0699  0.1717
  259THF     H5 3851   2.200   1.209   2.196  0.1337  1.6629  1.4652
  259THF     H6 3852   2.075   1.085   2.180 -0.5238  1.3980 -1.9105
  259THF     H7 3853   1.855   1.352   2.308  0.0506  1.1952 -1.4335
  259THF     H8 3854   1.820   1.198   2.209  0.6543  1.3348 -1.3055
  260THF     C1 3855   2.404   0.911   2.463  1.2574  0.9859  0.2087
  260THF     C2 3856   2.475   1.046   2.426  0.1056  0.0022 -0.9336
  260THF     C3 3857   2.456   1.063   2.272 -0.5291 -0.0132 -0.3482
  260THF     O1 3858   2.387   0.944   2.232 -0.1182  0.4471 -0.4117
  260THF     C4 3859   2.417   0.843   2.328 -0.4678  0.6942  0.5415
  260THF     H1 3860   2.465   0.847   2.527 -1.4694 -1.6076  0.3113
  260THF     H2 3861   2.297   0.917   2.488  1.1575  2.5499 -0.5667
  260THF     H3 3862   2.582   1.044   2.446 -0.1200  0.4375  0.3476
  260THF     H4 3863   2.426   1.130   2.476 -0.3289 -0.5281 -0.4637
  260THF     H5 3864   2.403   1.155   2.244 -1.3207  0.2553  1.9093
  260THF     H6 3865   2.558   1.061   2.234 -0.3994  0.0466 -0.0092
  260THF     H7 3866   2.352   0.756   2.314  2.2269 -1.4139  0.6170
  260THF     H8 3867   2.521   0.816   2.303 -1.4529 -0.5961 -2.3891
  261THF     C1 3868   3.207   2.589   2.636  0.2545  0.1752  0.1454
  261THF     C2 3869   3.086   2.616   2.741 -0.6629 -0.5254 -0.4151
  261THF     C3 3870   3.152   2.658   2.873  0.2245  0.4368 -0.0609
  261THF     O1 3871   3.294   2.669   2.844  0.1798  0.5861 -0.1491
  261THF     C4 3872   3.326   2.586   2.735  0.2460 -0.2389 -0.6116
  261THF     H1 3873   3.206   2.498   2.574  1.4436  0.0342  0.3214
  261THF     H2 3874   3.217   2.672   2.566  0.9000  1.2910  1.5352
  261THF     H3 3875   3.024   2.528   2.762 -0.8677 -0.0583  0.9551
  261THF     H4 3876   3.020   2.691   2.697 -1.5268 -0.5069  0.9118
  261THF     H5 3877   3.116   2.757   2.906 -0.6851  0.8436 -2.1682
  261THF     H6 3878   3.136   2.586   2.954  0.1507  0.7500  0.2044
  261THF     H7 3879   3.431   2.593   2.705  0.9379 -0.7693  1.5843
  261THF     H8 3880   3.327   2.488   2.783 -2.5946 -0.1892 -0.3263
  262THF     C1 3881   2.037   0.743   2.421  0.6190 -0.1061  0.4163
  262THF     C2 3882   1.942   0.735   2.298  0.1605 -0.6377  0.0794
  262THF     C3 3883   1.831   0.640   2.347  0.0812 -0.6493 -0.0717
  262THF     O1 3884   1.815   0.674   2.488  0.2860  0.5195 -0.4063
  262THF     C4 3885   1.923   0.772   2.525  0.5510  0.1369  0.6770
  262THF     H1 3886   2.089   0.653   2.455 -2.0672 -0.7894  3.0349
  262THF     H2 3887   2.110   0.824   2.424 -0.1997  0.6259  3.7632
  262THF     H3 3888   1.993   0.698   2.208 -1.0555 -2.6274  0.1592
  262THF     H4 3889   1.898   0.831   2.271  1.6028 -0.4970 -1.8614
  262THF     H5 3890   1.730   0.646   2.304 -0.4733  0.6743  1.3925
  262THF     H6 3891   1.854   0.533   2.339  1.9440 -0.3259  0.8896
  262THF     H7 3892   1.882   0.872   2.507 -0.3880 -0.4334 -0.4655
  262THF     H8 3893   1.949   0.748   2.629 -0.2836 -2.1238  0.3921
  263THF     C1 3894   1.225   0.861   3.326 -1.3412  0.4066  0.4692
  263THF     C2 3895   1.173   0.789   3.453  0.3547 -0.5799  0.3843
  263THF     C3 3896   1.056   0.882   3.484 -0.0476  0.6235  0.3207
  263THF     O1 3897   1.016   0.938   3.360  0.2510 -0.9367  0.0727
  263THF     C4 3898   1.132   0.976   3.293 -0.4781  0.5960 -0.2516
  263THF     H1 3899   1.331   0.886   3.336 -1.3728  0.9255 -0.4397
  263THF     H2 3900   1.229   0.792   3.241 -1.0860  0.6790  0.2583
  263THF     H3 3901   1.248   0.787   3.533  0.4012  1.6430  0.4315
  263THF     H4 3902   1.140   0.688   3.428 -0.3897 -0.0765 -0.7230
  263THF     H5 3903   0.968   0.832   3.527 -1.7121  0.8325 -2.7160
  263THF     H6 3904   1.094   0.959   3.552 -0.4523  0.7123  0.4487
  263THF     H7 3905   1.105   0.983   3.187 -0.1326 -0.5633 -0.4251
  263THF     H8 3906   1.174   1.073   3.323  0.0371  0.3726 -0.2460
  264THF     C1 3907   0.775   1.740   2.926  0.2385 -0.6145 -1.1170
  264THF     C2 3908   0.694   1.680   3.049  0.4630  0.6446 -0.3341
  264THF     C3 3909   0.601   1.576   2.979  0.1074 -0.1468  0.3386
  264THF     O1 3910   0.620   1.600   2.834  0.1160  0.4116 -0.0378
  264THF     C4 3911   0.754   1.636   2.812 -0.1712 -0.4894 -1.0772
  264THF     H1 3912   0.743   1.838   2.889  2.7848  1.0659  0.8997
  264THF     H2 3913   0.881   1.755   2.950 -0.1103 -0.1425  0.1234
  264THF     H3 3914   0.625   1.755   3.090  0.5263  0.8451 -0.5876
  264THF     H4 3915   0.746   1.628   3.130 -1.1105 -0.9953 -0.3508
  264THF     H5 3916   0.641   1.477   3.002  1.8048 -0.3167 -2.9792
  264THF     H6 3917   0.494   1.582   3.001  0.0486  0.5102 -0.0909
  264THF     H7 3918   0.818   1.548   2.829 -1.0535 -0.8828  0.3209
  264THF     H8 3919   0.767   1.668   2.709  0.3629  1.7445 -0.3316
  265THF     C1 3920   0.601   1.745   3.586 -0.3427 -0.0065 -0.5032
  265THF     C2 3921   0.554   1.604   3.579  0.0294  0.0134  0.5338
  265THF     C3 3922   0.515   1.586   3.732 -0.5234 -0.2290  0.4300
  265THF     O1 3923   0.468   1.712   3.779 -0.1917  0.2943 -0.0270
  265THF     C4 3924   0.485   1.810   3.672  0.0119 -0.0231 -0.6017
  265THF     H1 3925   0.695   1.745   3.642  0.6444 -2.5973 -2.0981
  265THF     H2 3926   0.619   1.785   3.486 -0.1492 -1.8043 -1.1836
  265THF     H3 3927   0.642   1.545   3.551  0.3587  0.5031  0.5313
  265THF     H4 3928   0.472   1.596   3.507  2.0424 -0.7575 -1.7174
  265THF     H5 3929   0.424   1.527   3.743 -1.2908  0.7285 -0.7385
  265THF     H6 3930   0.598   1.562   3.801 -1.3682  0.8482  1.8440
  265THF     H7 3931   0.389   1.840   3.628 -0.6364  0.4161  1.0330
  265THF     H8 3932   0.513   1.908   3.715 -0.8916  0.9952 -2.2700
  266THF     C1 3933   0.821   1.084   3.698 -0.6243 -0.6075  0.0041
  266THF     C2 3934   0.837   0.983   3.809  0.6068 -0.7214  0.3263
  266THF     C3 3935   0.896   1.060   3.919  0.2069 -0.2018 -0.3798
  266THF     O1 3936   0.820   1.181   3.912  0.0364  0.5151  0.3536
  266THF     C4 3937   0.781   1.213   3.772 -0.4735  0.0350  0.4820
  266THF     H1 3938   0.920   1.111   3.658 -0.6775  0.6085  0.6788
  266THF     H2 3939   0.760   1.054   3.612 -2.0215 -0.0813  0.7936
  266THF     H3 3940   0.896   0.898   3.773  0.7499 -0.3151 -0.3836
  266THF     H4 3941   0.739   0.950   3.848 -0.0757  0.5960 -0.2582
  266THF     H5 3942   0.903   1.019   4.020  0.9794 -0.8967 -0.7093
  266THF     H6 3943   1.001   1.086   3.900  0.4552 -1.2688 -0.4766
  266THF     H7 3944   0.676   1.246   3.766  0.0720  1.4068 -2.5111
  266THF     H8 3945   0.844   1.293   3.731  0.2457 -0.4809  0.5675
  267THF     C1 3946   2.891   0.166   2.856  0.2605 -0.7008 -0.6897
  267THF     C2 3947   2.853   0.065   2.977 -0.0851  0.9247  0.5833
  267THF     C3 3948   2.726   0.120   3.027  0.0626  0.1928  0.1277
  267THF     O1 3949   2.692   0.245   2.953  0.6649  0.7548 -0.3364
  267THF     C4 3950   2.818   0.297   2.899 -0.0559 -0.3353 -0.5940
  267THF     H1 3951   2.998   0.180   2.841  1.0796 -2.7429  2.6785
  267THF     H2 3952   2.849   0.136   2.759  1.6646  0.4759 -1.6908
  267THF     H3 3953   2.934   0.068   3.051  0.5150  0.3009 -0.0495
  267THF     H4 3954   2.847  -0.038   2.940  0.0138  1.8393 -2.0681
  267THF     H5 3955   2.652   0.042   3.010  0.2197 -0.0948  0.7263
  267THF     H6 3956   2.718   0.135   3.136 -1.3929  0.0369  0.0562
  267THF     H7 3957   2.809   0.361   2.811  1.3163  0.7343  0.0166
  267THF     H8 3958   2.867   0.365   2.970  0.6932 -0.8903 -0.5692
  268THF     C1 3959   2.563   0.721   3.160 -0.1752  0.0456  0.2385
  268THF     C2 3960   2.508   0.576   3.189  0.2862  0.3008 -0.3009
  268THF     C3 3961   2.640   0.496   3.221 -0.4633  0.4310 -0.2540
  268THF     O1 3962   2.745   0.591   3.243  0.2380  0.0848 -0.2639
  268THF     C4 3963   2.715   0.698   3.156  0.1654  0.3841  0.2781
  268THF     H1 3964   2.542   0.770   3.064 -0.6194 -0.4429  0.0880
  268THF     H2 3965   2.544   0.794   3.240  1.4513  3.9460 -2.7485
  268THF     H3 3966   2.467   0.527   3.100  2.0697 -3.8600  1.0390
  268THF     H4 3967   2.436   0.580   3.271 -0.6488 -1.0178 -1.0429
  268THF     H5 3968   2.625   0.444   3.316 -0.6330 -0.1248 -0.5859
  268THF     H6 3969   2.672   0.425   3.144 -0.1014  1.0470 -0.6779
  268THF     H7 3970   2.770   0.787   3.187  0.5218 -0.1050  1.0800
  268THF     H8 3971   2.747   0.688   3.052  1.2794  1.5806  0.4975
  269THF     C1 3972   2.833   2.756   2.972  0.4869  0.6797 -0.5695
  269THF     C2 3973   2.896   2.801   3.108 -0.6481 -0.2176 -0.2016
  269THF     C3 3974   2.807   2.722   3.203  1.0679 -0.4316  0.5781
  269THF     O1 3975   2.818   2.590   3.143  0.0965  0.0825 -0.1676
  269THF     C4 3976   2.822   2.605   3.002 -0.2117 -0.1582 -0.4396
  269THF     H1 3977   2.734   2.801   2.963 -0.6951 -1.1999  2.2065
  269THF     H2 3978   2.887   2.791   2.883 -0.5889  1.5223 -0.9060
  269THF     H3 3979   2.885   2.910   3.114 -1.2100 -0.2873  0.0840
  269THF     H4 3980   3.000   2.769   3.118 -0.0580  1.6021 -0.2726
  269THF     H5 3981   2.839   2.715   3.308  2.9720  1.7033  0.1527
  269THF     H6 3982   2.704   2.759   3.190  1.5246 -0.3477 -3.0976
  269THF     H7 3983   2.903   2.539   2.966 -0.4912 -0.0116 -1.3544
  269THF     H8 3984   2.724   2.573   2.966  0.3365 -2.4180 -0.0395
  270THF     C1 3985   3.290   0.299   3.274  0.3048 -0.2718 -0.2137
  270THF     C2 3986   3.147   0.333   3.333  0.1590 -0.4568 -0.7250
  270THF     C3 3987   3.111   0.482   3.292  0.2048 -0.0617  1.2781
  270THF     O1 3988   3.232   0.526   3.227 -0.4596  0.9630  0.3653
  270THF     C4 3989   3.345   0.446   3.275 -0.0216 -0.0117 -0.6987
  270THF     H1 3990   3.348   0.228   3.333  1.6369  0.0855 -1.0704
  270THF     H2 3991   3.296   0.270   3.168  2.9621  2.4112 -0.8615
  270THF     H3 3992   3.153   0.328   3.442 -0.2396  3.1899 -0.4686
  270THF     H4 3993   3.074   0.256   3.304 -0.8688  0.0475  0.5151
  270THF     H5 3994   3.026   0.500   3.224  1.4341  0.2894 -0.1842
  270THF     H6 3995   3.109   0.546   3.381  0.1118  1.1755  0.3984
  270THF     H7 3996   3.430   0.461   3.208 -1.8880  1.8117 -2.6972
  270THF     H8 3997   3.366   0.479   3.378 -2.1562 -1.1173  0.1284
  271THF     C1 3998   0.258   0.058   3.182 -0.1275 -0.8334  0.0166
  271THF     C2 3999   0.340   0.056   3.046 -0.1034 -0.1378  0.0732
  271THF     C3 4000   0.397   0.203   3.048  0.3956 -0.2529  0.3811
  271THF     O1 4001   0.362   0.260   3.174  0.3247 -0.0592  0.2416
  271THF     C4 4002   0.238   0.208   3.206 -0.4310  0.0649  0.3811
  271THF     H1 4003   0.169  -0.004   3.170 -0.7849 -0.4417  2.5853
  271THF     H2 4004   0.314   0.015   3.266 -0.5559 -0.7565  0.3425
  271THF     H3 4005   0.271   0.050   2.962 -0.6479  0.2182  0.4882
  271THF     H4 4006   0.429  -0.008   3.046  0.3026  0.4071  0.7824
  271THF     H5 4007   0.503   0.216   3.025  0.1093  1.5880  0.0215
  271THF     H6 4008   0.342   0.256   2.970  2.3595 -0.1350 -0.9551
  271THF     H7 4009   0.202   0.232   3.307 -0.3199  1.2217  0.1531
  271THF     H8 4010   0.157   0.251   3.146 -1.1343 -0.2558  1.0985
  272THF     C1 4011   3.262   1.057   2.946  0.1744  0.2339  0.8170
  272THF     C2 4012   3.216   1.212   2.930 -0.9682 -0.3729  0.0356
  272THF     C3 4013   3.211   1.213   2.771  0.3762 -0.0476 -0.2330
  272THF     O1 4014   3.116   1.103   2.751 -0.1649  0.1317  0.0882
  272THF     C4 4015   3.186   0.991   2.825  0.0217 -0.5648  0.0557
  272THF     H1 4016   3.367   1.027   2.934  0.5077  1.6596 -0.0335
  272THF     H2 4017   3.231   1.025   3.046  0.3639  1.1716  1.1843
  272THF     H3 4018   3.294   1.280   2.964 -0.4017 -1.0384  0.0924
  272THF     H4 4019   3.116   1.237   2.967 -1.7342  0.3641 -2.4328
  272THF     H5 4020   3.158   1.304   2.741 -1.1916 -0.4583  1.1962
  272THF     H6 4021   3.304   1.201   2.714  0.7695  0.0900  0.3762
  272THF     H7 4022   3.120   0.922   2.879 -1.6615  0.0360 -1.2006
  272THF     H8 4023   3.257   0.936   2.761 -0.3692 -1.0268  0.0150
  273THF     C1 4024   3.302   3.243   2.282  0.2104  0.3612 -0.1665
  273THF     C2 4025   3.443   3.258   2.337  0.2888  0.2147 -0.7210
  273THF     C3 4026   3.506   3.118   2.295 -0.4206 -0.6080 -0.0797
  273THF     O1 4027   3.409   3.037   2.234 -0.0827  0.0217  0.0147
  273THF     C4 4028   3.289   3.088   2.292  0.4059  0.4514 -0.0838
  273THF     H1 4029   3.220   3.281   2.343 -0.9892 -0.9244 -0.9567
  273THF     H2 4030   3.294   3.273   2.177 -3.8052 -0.1022 -0.0696
  273THF     H3 4031   3.434   3.267   2.445  1.9066 -2.0668 -0.3501
  273THF     H4 4032   3.496   3.345   2.296  0.0215  0.8382  0.2498
  273THF     H5 4033   3.599   3.115   2.237  0.2575  0.0253  0.9735
  273THF     H6 4034   3.532   3.055   2.381 -1.9312  1.0525  1.6185
  273THF     H7 4035   3.205   3.038   2.244  0.0657  1.0642 -0.1383
  273THF     H8 4036   3.277   3.052   2.394  0.9516  1.2947  0.2928
  274THF     C1 4037   0.870   0.258   2.286 -0.0023  0.4210 -0.3194
  274THF     C2 4038   0.985   0.158   2.288  0.8511 -0.0542 -0.4008
  274THF     C3 4039   0.922   0.014   2.270  0.7576  0.3281 -0.5100
  274THF     O1 4040   0.790   0.042   2.218 -0.2650  0.0756 -0.1292
  274THF     C4 4041   0.749   0.154   2.298  0.0315  0.0573 -0.5802
  274THF     H1 4042   0.889   0.326   2.370  1.3712 -0.0563 -0.2378
  274THF     H2 4043   0.866   0.310   2.190  0.5434  1.2707  0.1149
  274THF     H3 4044   1.044   0.154   2.380 -0.3205 -1.4098  0.3199
  274THF     H4 4045   1.063   0.186   2.217  1.5795  0.9503  0.7657
  274THF     H5 4046   0.979  -0.042   2.195  0.7645 -0.1287 -0.1657
  274THF     H6 4047   0.913  -0.048   2.360  0.5422 -0.4574 -1.0762
  274THF     H7 4048   0.655   0.194   2.260 -0.0848 -0.9349 -1.3569
  274THF     H8 4049   0.737   0.119   2.402  0.0220 -1.5020 -1.0964
  275THF     C1 4050   0.252   1.806   3.256 -0.0876  0.1126  0.3026
  275THF     C2 4051   0.343   1.912   3.325 -0.9235 -0.8304  0.3251
  275THF     C3 4052   0.369   2.014   3.213 -0.1119 -0.5740 -0.0065
  275THF     O1 4053   0.244   2.012   3.147  0.3200 -0.3213 -0.6913
  275THF     C4 4054   0.215   1.876   3.126 -0.6946  0.6319 -0.2047
  275THF     H1 4055   0.306   1.711   3.240 -2.0946 -0.8974 -0.5864
  275THF     H2 4056   0.169   1.791   3.326 -0.3374  0.5208  0.0956
  275THF     H3 4057   0.435   1.862   3.358 -0.7189  1.1084  2.8915
  275THF     H4 4058   0.302   1.960   3.415  1.7154 -0.1498  1.2179
  275THF     H5 4059   0.401   2.111   3.254  1.5808 -1.1726  0.1148
  275THF     H6 4060   0.449   1.987   3.143  0.8397 -0.8327  1.1614
  275THF     H7 4061   0.113   1.855   3.089 -0.5232  1.2414 -1.0273
  275THF     H8 4062   0.278   1.838   3.045  0.3098  0.3283  0.7161
  276THF     C1 4063   2.165   0.220   2.317 -0.4089 -0.6576 -0.8900
  276THF     C2 4064   2.288   0.136   2.340 -0.0392 -0.0199  0.1899
  276THF     C3 4065   2.390   0.229   2.275  0.3577  0.2297  0.1645
  276THF     O1 4066   2.346   0.360   2.307  0.7619 -0.1325  0.1597
  276THF     C4 4067   2.209   0.363   2.355  0.4684  0.4197 -0.1742
  276THF     H1 4068   2.139   0.221   2.211 -1.1935  0.2108 -0.6964
  276THF     H2 4069   2.072   0.188   2.365 -0.5743  1.1713  0.0477
  276THF     H3 4070   2.297   0.038   2.291  0.9435  0.8944 -1.4920
  276THF     H4 4071   2.305   0.120   2.447  1.8907 -0.5659 -0.1868
  276THF     H5 4072   2.496   0.225   2.304 -0.2322  1.4132  2.6456
  276THF     H6 4073   2.391   0.220   2.166  3.2724  0.0561  0.1781
  276THF     H7 4074   2.210   0.378   2.464  0.5085  1.4460 -0.3179
  276THF     H8 4075   2.160   0.443   2.298 -0.8972 -1.5354 -1.8234
  277THF     C1 4076   1.722   0.124   2.297  0.6455 -0.0645  0.5346
  277THF     C2 4077   1.815   0.000   2.275 -0.1805  0.0128  0.0274
  277THF     C3 4078   1.839  -0.033   2.424  0.2453 -0.3804  0.2853
  277THF     O1 4079   1.867   0.091   2.477  0.5422 -0.6897  0.5689
  277THF     C4 4080   1.790   0.195   2.406 -0.6938  0.5243  0.2186
  277THF     H1 4081   1.724   0.178   2.202  3.3634 -0.7939  0.1464
  277THF     H2 4082   1.621   0.092   2.325  1.1426 -1.8464  0.3748
  277THF     H3 4083   1.906   0.027   2.220  1.2014 -2.0526  1.2568
  277THF     H4 4084   1.758  -0.069   2.211  0.9074 -0.9642  0.1156
  277THF     H5 4085   1.746  -0.068   2.469  0.7295 -3.2836 -0.8375
  277THF     H6 4086   1.928  -0.094   2.446 -0.6052 -1.6766  0.1475
  277THF     H7 4087   1.720   0.230   2.483 -0.8688  0.6310  0.0117
  277THF     H8 4088   1.851   0.279   2.370 -2.5366  1.4479 -0.8539
  278THF     C1 4089   0.189   0.723   2.676  0.7024 -0.1020 -0.1291
  278THF     C2 4090   0.297   0.833   2.696  0.1117  0.1975  0.0365
  278THF     C3 4091   0.202   0.961   2.711  0.0370 -0.5668 -0.0972
  278THF     O1 4092   0.081   0.910   2.776  0.1200 -0.0784  0.5808
  278THF     C4 4093   0.091   0.764   2.791 -0.2837 -0.4524  0.2769
  278THF     H1 4094   0.146   0.740   2.576  0.8730  1.1254  0.0022
  278THF     H2 4095   0.230   0.621   2.680 -1.6759 -1.0992  0.0324
  278THF     H3 4096   0.368   0.853   2.615  0.1256  0.5015  0.1221
  278THF     H4 4097   0.353   0.828   2.790  0.4972  0.5355 -0.1738
  278THF     H5 4098   0.250   1.030   2.782 -2.9978 -1.0971  2.5976
  278THF     H6 4099   0.178   1.014   2.618  1.1288  0.0230 -0.0572
  278THF     H7 4100   0.118   0.738   2.894  0.8168 -0.4255 -0.0001
  278THF     H8 4101  -0.006   0.714   2.778 -0.9013  1.1320 -1.4796
  279THF     C1 4102   1.832   0.695   0.102  0.0860  0.5912  0.7209
  279THF     C2 4103   1.781   0.823   0.037  0.3095 -0.0322  0.2702
  279THF     C3 4104   1.795   0.798  -0.112 -0.0127 -0.2178  0.0776
  279THF     O1 4105   1.897   0.702  -0.122  0.2073  0.0879  0.1211
  279THF     C4 4106   1.869   0.606  -0.020 -0.1258  0.5649 -0.1285
  279THF     H1 4107   1.913   0.717   0.173 -0.4430  2.6607  0.7146
  279THF     H2 4108   1.755   0.647   0.163 -1.3251  1.6767 -0.1705
  279THF     H3 4109   1.841   0.912   0.058 -0.7169  0.1175  2.6888
  279THF     H4 4110   1.677   0.855   0.049  0.7572  1.1647  0.9865
  279THF     H5 4111   1.704   0.753  -0.156 -0.2537 -1.6157  1.9653
  279THF     H6 4112   1.825   0.890  -0.164 -1.1629 -0.4883 -1.1133
  279THF     H7 4113   1.781   0.546  -0.046  1.3168 -0.4401 -2.8652
  279THF     H8 4114   1.959   0.544  -0.011 -1.3043 -0.6853  3.6442
  280THF     C1 4115   1.442   0.515   0.185 -0.0225  0.0753 -0.2070
  280THF     C2 4116   1.431   0.650   0.106  0.2095  0.8187 -0.9147
  280THF     C3 4117   1.446   0.594  -0.045  0.3650  1.1253 -0.2731
  280THF     O1 4118   1.442   0.454  -0.033  0.0388 -0.6429  0.2767
  280THF     C4 4119   1.521   0.420   0.083  1.1077 -0.5371  0.6284
  280THF     H1 4120   1.503   0.526   0.275 -0.5061  0.3197  0.0923
  280THF     H2 4121   1.348   0.467   0.213  0.1296  0.8715  1.7184
  280THF     H3 4122   1.503   0.725   0.138 -0.9111  1.2424  0.6989
  280THF     H4 4123   1.328   0.687   0.115 -0.3455 -0.9510  0.4658
  280THF     H5 4124   1.354   0.624  -0.097  0.8785  0.5206 -1.5563
  280THF     H6 4125   1.536   0.639  -0.087  0.3424  0.5321 -0.9483
  280THF     H7 4126   1.504   0.313   0.104 -2.3623 -0.3569 -1.0670
  280THF     H8 4127   1.627   0.446   0.073  1.0363 -1.1518 -2.0691
  281THF     C1 4128   0.015   1.768   0.074  0.1347  0.5015  0.2659
  281THF     C2 4129   0.125   1.676   0.006 -0.2298 -0.3258  0.0303
  281THF     C3 4130   0.207   1.620   0.117  0.2024  0.1961  0.3007
  281THF     O1 4131   0.117   1.616   0.228  0.0899 -0.9142  0.6667
  281THF     C4 4132   0.005   1.701   0.212 -0.0170 -0.0318  0.2718
  281THF     H1 4133   0.067   1.864   0.080  2.2175 -0.6070  0.4723
  281THF     H2 4134  -0.081   1.787   0.026  0.4956  2.7958  0.4226
  281THF     H3 4135   0.193   1.711  -0.072  0.9086 -0.2089  1.0417
  281THF     H4 4136   0.076   1.586  -0.032 -1.2667 -0.1211  0.8533
  281THF     H5 4137   0.250   1.522   0.093 -0.1974 -0.2203  1.2216
  281THF     H6 4138   0.293   1.681   0.148  0.2945 -0.3351  1.1037
  281THF     H7 4139  -0.087   1.644   0.226  0.0959 -0.0713  0.8746
  281THF     H8 4140   0.016   1.774   0.293  1.4316 -0.9239  0.9091
  282THF     C1 4141   1.146   1.212   2.435 -0.0062  0.2507 -0.2740
  282THF     C2 4142   1.087   1.140   2.303 -0.0860  0.2564  0.2906
  282THF     C3 4143   0.937   1.147   2.337  0.4702  0.8034  0.0503
  282THF     O1 4144   0.930   1.107   2.473  0.2976 -0.4138  0.5049
  282THF     C4 4145   1.032   1.189   2.543  0.4320  0.5832 -0.1081
  282THF     H1 4146   1.241   1.176   2.477 -0.1220  0.5940  0.2804
  282THF     H2 4147   1.152   1.320   2.421  0.0557  0.0814 -1.7247
  282THF     H3 4148   1.122   1.038   2.285  0.2767  0.5607 -0.7690
  282THF     H4 4149   1.111   1.185   2.206 -1.6006  1.6259  0.5241
  282THF     H5 4150   0.898   1.249   2.340 -0.2842  0.5636 -1.1923
  282THF     H6 4151   0.877   1.079   2.274  1.6485 -1.9533  1.7846
  282THF     H7 4152   0.987   1.288   2.558 -3.4553 -1.3069  1.4163
  282THF     H8 4153   1.055   1.139   2.637 -3.3265  1.0867  1.1406
  283THF     C1 4154   0.761   2.799   3.609 -0.0695 -0.4836  0.2014
  283THF     C2 4155   0.658   2.876   3.517 -0.0446  0.4820  0.0192
  283THF     C3 4156   0.700   3.026   3.530 -0.3178  0.0885 -0.5487
  283THF     O1 4157   0.733   3.038   3.671 -0.2340  0.1160 -0.5606
  283THF     C4 4158   0.811   2.920   3.706 -0.0948 -0.8884 -0.2148
  283THF     H1 4159   0.713   2.717   3.663 -0.5260 -0.8657 -0.7660
  283THF     H2 4160   0.848   2.759   3.556 -0.1124  2.4795 -2.2835
  283THF     H3 4161   0.552   2.869   3.545 -0.0284  3.3017  0.9103
  283THF     H4 4162   0.664   2.840   3.414  1.2684  0.6421  0.0423
  283THF     H5 4163   0.782   3.046   3.461  1.0831 -2.4295  0.3140
  283THF     H6 4164   0.619   3.095   3.504  0.7448  1.7341  0.4264
  283THF     H7 4165   0.918   2.939   3.692  0.1989 -1.9425  0.5239
  283THF     H8 4166   0.787   2.901   3.812 -0.9126 -0.7165 -0.3609
  284THF     C1 4167   1.997   2.324   3.277  0.1525 -0.5361 -0.5262
  284THF     C2 4168   2.063   2.346   3.419  0.2118  0.2707  0.3236
  284THF     C3 4169   1.946   2.394   3.500  1.1389  0.5146  0.4849
  284THF     O1 4170   1.845   2.436   3.402  0.0744  0.4556 -0.0317
  284THF     C4 4171   1.849   2.343   3.295 -0.6980 -0.1776 -0.2406
  284THF     H1 4172   2.040   2.385   3.197 -2.0297  0.6330 -0.8207
  284THF     H2 4173   2.028   2.225   3.242 -0.0340  0.2046 -2.8495
  284THF     H3 4174   2.132   2.428   3.396  0.2218 -0.5649 -2.8896
  284THF     H4 4175   2.112   2.260   3.466  0.8316  0.8693  0.7851
  284THF     H5 4176   1.904   2.314   3.561 -0.8883  1.2771  0.1518
  284THF     H6 4177   1.967   2.483   3.561  1.9015 -0.6463  1.9242
  284THF     H7 4178   1.804   2.246   3.318  0.1169 -0.9646 -1.9039
  284THF     H8 4179   1.790   2.380   3.210 -0.0478  0.7164 -0.3175
  285THF     C1 4180   1.036   0.228   2.670  0.0085  0.2901 -0.5910
  285THF     C2 4181   1.037   0.245   2.822  0.3910  0.7609 -0.5257
  285THF     C3 4182   1.078   0.109   2.894 -0.5329 -0.1656  0.5399
  285THF     O1 4183   1.089   0.022   2.789 -0.4119  0.1163  0.7635
  285THF     C4 4184   1.129   0.100   2.670 -0.4816  0.3695 -0.3990
  285THF     H1 4185   0.939   0.208   2.624 -0.1696  1.8102 -0.8910
  285THF     H2 4186   1.076   0.312   2.612  0.9528  0.1080 -0.2096
  285THF     H3 4187   0.946   0.286   2.866 -1.1661  1.1536 -3.9740
  285THF     H4 4188   1.111   0.321   2.848 -0.8113  1.6464  0.3259
  285THF     H5 4189   1.176   0.118   2.943 -1.1291 -1.0030  1.9082
  285THF     H6 4190   0.996   0.067   2.954 -1.3211 -0.3441 -0.6538
  285THF     H7 4191   1.233   0.129   2.690 -1.1788  1.5566  1.6695
  285THF     H8 4192   1.123   0.038   2.580 -1.0346  0.5918 -0.5228
  286THF     C1 4193   0.150   0.261   2.691 -0.6320  0.3580  0.1808
  286THF     C2 4194   0.035   0.164   2.645 -0.1690 -0.4451 -0.8028
  286THF     C3 4195  -0.077   0.183   2.752 -0.3545  0.8216  0.6597
  286THF     O1 4196  -0.016   0.247   2.862  0.3491  0.5868 -0.5103
  286THF     C4 4197   0.077   0.341   2.806  0.4720 -0.3507 -0.0099
  286THF     H1 4198   0.236   0.212   2.740  0.2228  0.5024 -1.1687
  286THF     H2 4199   0.192   0.329   2.616  1.2859  2.0064  2.6475
  286THF     H3 4200   0.069   0.060   2.647  1.9109  0.2170 -0.2502
  286THF     H4 4201   0.010   0.184   2.541  0.0662  0.1043 -0.7554
  286THF     H5 4202  -0.157   0.243   2.706 -3.1424 -2.3849  1.1304
  286THF     H6 4203  -0.121   0.087   2.781 -0.5307  0.5873 -0.3842
  286THF     H7 4204   0.027   0.430   2.766 -1.3629 -1.8931 -1.2125
  286THF     H8 4205   0.140   0.373   2.890 -0.7550  3.2655 -0.3884
  287THF     C1 4206   2.748   0.674   2.321  0.1519 -0.1226 -0.1961
  287THF     C2 4207   2.791   0.539   2.382 -0.5756 -0.4302 -0.2891
  287THF     C3 4208   2.869   0.478   2.262 -0.3952 -0.2500  0.2648
  287THF     O1 4209   2.951   0.592   2.234  0.4643  0.1898  0.1307
  287THF     C4 4210   2.889   0.720   2.288  0.3044  0.1594  0.1422
  287THF     H1 4211   2.686   0.661   2.232  0.6488  0.1868 -0.5877
  287THF     H2 4212   2.691   0.732   2.395  0.1151  1.1204 -1.1793
  287THF     H3 4213   2.708   0.472   2.404 -1.1629  0.3695 -0.0482
  287THF     H4 4214   2.859   0.551   2.467  0.9230  1.6634 -1.7252
  287THF     H5 4215   2.920   0.383   2.279  3.8179  1.7743 -0.5206
  287THF     H6 4216   2.798   0.465   2.179 -1.4822  3.6268  0.5072
  287THF     H7 4217   2.937   0.734   2.386  1.2973 -3.2102  0.2243
  287THF     H8 4218   2.896   0.808   2.223  1.9084  0.1831  0.3304
  288THF     C1 4219   2.682   0.086   0.044  0.0792  0.0032 -0.4613
  288THF     C2 4220   2.556   0.039   0.116  0.4236 -0.2210  0.8605
  288THF     C3 4221   2.594  -0.107   0.124 -0.1480  0.2495 -0.4576
  288THF     O1 4222   2.636  -0.136  -0.011 -0.0235  0.1019  0.2258
  288THF     C4 4223   2.715  -0.025  -0.058 -0.4127  0.2523  0.5445
  288THF     H1 4224   2.673   0.185  -0.002 -3.0122  1.1317  2.4131
  288THF     H2 4225   2.770   0.097   0.109 -0.3064 -1.2172  0.2723
  288THF     H3 4226   2.474   0.054   0.045  4.4070  3.0785 -3.3074
  288THF     H4 4227   2.546   0.090   0.213  0.7728  0.1987  0.6804
  288THF     H5 4228   2.677  -0.134   0.192 -0.1200 -0.9928 -0.9791
  288THF     H6 4229   2.510  -0.170   0.153  0.3242  0.6647  1.9468
  288THF     H7 4230   2.824  -0.041  -0.055 -0.3035  0.8503 -0.1168
  288THF     H8 4231   2.686  -0.002  -0.161  0.0515  1.4172  0.6727
  289THF     C1 4232   1.641   2.666   3.194  0.6603  0.0601  0.0630
  289THF     C2 4233   1.488   2.679   3.168  0.2164 -0.3360 -0.1715
  289THF     C3 4234   1.438   2.690   3.311  0.1655  0.4942  0.0008
  289THF     O1 4235   1.532   2.785   3.362  0.8890 -0.5138  0.5057
  289THF     C4 4236   1.664   2.748   3.319 -0.2355  0.2887 -0.2248
  289THF     H1 4237   1.685   2.567   3.212  0.8483  0.2830  0.8558
  289THF     H2 4238   1.699   2.704   3.109 -0.0367 -2.0927 -1.4149
  289THF     H3 4239   1.440   2.591   3.123  1.7422 -0.0346 -2.4103
  289THF     H4 4240   1.468   2.763   3.101  2.4972 -0.7488 -1.4113
  289THF     H5 4241   1.341   2.741   3.322  0.2299  0.9285 -1.4158
  289THF     H6 4242   1.443   2.602   3.377 -0.7774  1.3554  1.2409
  289THF     H7 4243   1.729   2.834   3.298  1.1592 -0.0903  2.3717
  289THF     H8 4244   1.717   2.701   3.402 -2.5557  2.8886  2.8466
  290THF     C1 4245   2.352   1.933   3.463 -0.4261  0.0323 -0.5852
  290THF     C2 4246   2.496   1.928   3.414 -0.4584 -0.0796 -0.1224
  290THF     C3 4247   2.567   2.025   3.507  0.7713 -0.0682  0.3744
  290THF     O1 4248   2.468   2.118   3.553  0.3148  0.0951  0.0224
  290THF     C4 4249   2.338   2.077   3.508  0.3530 -0.0475  0.2355
  290THF     H1 4250   2.276   1.903   3.390  1.0241 -0.4168 -1.9309
  290THF     H2 4251   2.338   1.880   3.558 -2.3812  0.6593 -0.4971
  290THF     H3 4252   2.502   1.972   3.314  0.0487  0.1171 -0.0058
  290THF     H4 4253   2.545   1.831   3.412 -1.4099 -0.5792  0.3953
  290THF     H5 4254   2.619   1.963   3.581 -0.4322 -2.6521 -0.8477
  290THF     H6 4255   2.648   2.077   3.456  0.3454  0.4844  0.2615
  290THF     H7 4256   2.265   2.092   3.589 -2.5030 -2.1197 -1.8504
  290THF     H8 4257   2.321   2.141   3.421 -0.7990  2.5695  2.3275
  291THF     C1 4258   0.798   0.681   2.279 -0.0087 -0.5609 -0.0723
  291THF     C2 4259   0.942   0.653   2.334 -0.1549  0.2162  0.3987
  291THF     C3 4260   1.030   0.736   2.235  0.6771  0.0349  0.0066
  291THF     O1 4261   0.938   0.838   2.184  0.3001 -0.0676  0.0888
  291THF     C4 4262   0.807   0.833   2.262  0.2135 -1.0446 -0.2761
  291THF     H1 4263   0.770   0.637   2.183  0.9020  0.7033 -0.9434
  291THF     H2 4264   0.722   0.658   2.355  0.7030  1.6219  1.3406
  291THF     H3 4265   0.968   0.546   2.334  2.6194  0.8414 -0.2046
  291THF     H4 4266   0.949   0.698   2.433 -1.3566  0.7686  0.2454
  291THF     H5 4267   1.116   0.782   2.285  1.2302 -1.6922  0.6855
  291THF     H6 4268   1.065   0.670   2.156  0.3383 -0.3900  0.2082
  291THF     H7 4269   0.817   0.885   2.358 -0.3583  0.5411 -1.0642
  291THF     H8 4270   0.719   0.869   2.207  1.7046  0.6500 -1.6249
   3.40320   3.43847   3.80000
