THF comparator n4
 4270
    1GR      C1    1   0.000   0.000   1.900  0.0000  0.0000  0.0000
    1GR      C2    2   0.142   0.000   1.900  0.0000  0.0000  0.0000
    1GR      C3    3   0.213   0.123   1.900  0.0000  0.0000  0.0000
    1GR      C4    4   0.354   0.123   1.900  0.0000  0.0000  0.0000
    1GR      C5    5   0.000   0.246   1.900  0.0000  0.0000  0.0000
    1GR      C6    6   0.142   0.246   1.900  0.0000  0.0000  0.0000
    1GR      C7    7   0.213   0.368   1.900  0.0000  0.0000  0.0000
    1GR      C8    8   0.354   0.368   1.900  0.0000  0.0000  0.0000
    1GR      C9    9   0.000   0.491   1.900  0.0000  0.0000  0.0000
    1GR     C10   10   0.142   0.491   1.900  0.0000  0.0000  0.0000
    1GR     C11   11   0.213   0.614   1.900  0.0000  0.0000  0.0000
    1GR     C12   12   0.354   0.614   1.900  0.0000  0.0000  0.0000
    1GR     C13   13   0.000   0.737   1.900  0.0000  0.0000  0.0000
    1GR     C14   14   0.142   0.737   1.900  0.0000  0.0000  0.0000
    1GR     C15   15   0.213   0.860   1.900  0.0000  0.0000  0.0000
    1GR     C16   16   0.354   0.860   1.900  0.0000  0.0000  0.0000
    1GR     C17   17   0.000   0.982   1.900  0.0000  0.0000  0.0000
    1GR     C18   18   0.142   0.982   1.900  0.0000  0.0000  0.0000
    1GR     C19   19   0.213   1.105   1.900  0.0000  0.0000  0.0000
    1GR     C20   20   0.354   1.105   1.900  0.0000  0.0000  0.0000
    1GR     C21   21   0.000   1.228   1.900  0.0000  0.0000  0.0000
    1GR     C22   22   0.142   1.228   1.900  0.0000  0.0000  0.0000
    1GR     C23   23   0.213   1.351   1.900  0.0000  0.0000  0.0000
    1GR     C24   24   0.354   1.351   1.900  0.0000  0.0000  0.0000
    1GR     C25   25   3.403   1.474   1.900  0.0000  0.0000  0.0000
    1GR     C26   26   0.142   1.474   1.900  0.0000  0.0000  0.0000
    1GR     C27   27   0.213   1.596   1.900  0.0000  0.0000  0.0000
    1GR     C28   28   0.354   1.596   1.900  0.0000  0.0000  0.0000
    1GR     C29   29   0.000   1.719   1.900  0.0000  0.0000  0.0000
    1GR     C30   30   0.142   1.719   1.900  0.0000  0.0000  0.0000
    1GR     C31   31   0.213   1.842   1.900  0.0000  0.0000  0.0000
    1GR     C32   32   0.354   1.842   1.900  0.0000  0.0000  0.0000
    1GR     C33   33   0.000   1.965   1.900  0.0000  0.0000  0.0000
    1GR     C34   34   0.142   1.965   1.900  0.0000  0.0000  0.0000
    1GR     C35   35   0.213   2.088   1.900  0.0000  0.0000  0.0000
    1GR     C36   36   0.354   2.088   1.900  0.0000  0.0000  0.0000
    1GR     C37   37   0.000   2.210   1.900  0.0000  0.0000  0.0000
    1GR     C38   38   0.142   2.210   1.900  0.0000  0.0000  0.0000
    1GR     C39   39   0.213   2.333   1.900  0.0000  0.0000  0.0000
    1GR     C40   40   0.354   2.333   1.900  0.0000  0.0000  0.0000
    1GR     C41   41   0.000   2.456   1.900  0.0000  0.0000  0.0000
    1GR     C42   42   0.142   2.456   1.900  0.0000  0.0000  0.0000
    1GR     C43   43   0.213   2.579   1.900  0.0000  0.0000  0.0000
    1GR     C44   44   0.354   2.579   1.900  0.0000  0.0000  0.0000
    1GR     C45   45   0.000   2.702   1.900  0.0000  0.0000  0.0000
    1GR     C46   46   0.142   2.702   1.900  0.0000  0.0000  0.0000
    1GR     C47   47   0.213   2.824   1.900  0.0000  0.0000  0.0000
    1GR     C48   48   0.354   2.824   1.900  0.0000  0.0000  0.0000
    1GR     C49   49   0.000   2.947   1.900  0.0000  0.0000  0.0000
    1GR     C50   50   0.142   2.947   1.900  0.0000  0.0000  0.0000
    1GR     C51   51   0.213   3.070   1.900  0.0000  0.0000  0.0000
    1GR     C52   52   0.354   3.070   1.900  0.0000  0.0000  0.0000
    1GR     C53   53   0.000   3.193   1.900  0.0000  0.0000  0.0000
    1GR     C54   54   0.142   3.193   1.900  0.0000  0.0000  0.0000
    1GR     C55   55   0.213   3.316   1.900  0.0000  0.0000  0.0000
    1GR     C56   56   0.354   3.316   1.900  0.0000  0.0000  0.0000
    1GR     C57   57   0.425   0.000   1.900  0.0000  0.0000  0.0000
    1GR     C58   58   0.567   0.000   1.900  0.0000  0.0000  0.0000
    1GR     C59   59   0.638   0.123   1.900  0.0000  0.0000  0.0000
    1GR     C60   60   0.780   0.123   1.900  0.0000  0.0000  0.0000
    1GR     C61   61   0.425   0.246   1.900  0.0000  0.0000  0.0000
    1GR     C62   62   0.567   0.246   1.900  0.0000  0.0000  0.0000
    1GR     C63   63   0.638   0.368   1.900  0.0000  0.0000  0.0000
    1GR     C64   64   0.780   0.368   1.900  0.0000  0.0000  0.0000
    1GR     C65   65   0.425   0.491   1.900  0.0000  0.0000  0.0000
    1GR     C66   66   0.567   0.491   1.900  0.0000  0.0000  0.0000
    1GR     C67   67   0.638   0.614   1.900  0.0000  0.0000  0.0000
    1GR     C68   68   0.780   0.614   1.900  0.0000  0.0000  0.0000
    1GR     C69   69   0.425   0.737   1.900  0.0000  0.0000  0.0000
    1GR     C70   70   0.567   0.737   1.900  0.0000  0.0000  0.0000
    1GR     C71   71   0.638   0.860   1.900  0.0000  0.0000  0.0000
    1GR     C72   72   0.780   0.860   1.900  0.0000  0.0000  0.0000
    1GR     C73   73   0.425   0.982   1.900  0.0000  0.0000  0.0000
    1GR     C74   74   0.567   0.982   1.900  0.0000  0.0000  0.0000
    1GR     C75   75   0.638   1.105   1.900  0.0000  0.0000  0.0000
    1GR     C76   76   0.780   1.105   1.900  0.0000  0.0000  0.0000
    1GR     C77   77   0.425   1.228   1.900  0.0000  0.0000  0.0000
    1GR     C78   78   0.567   1.228   1.900  0.0000  0.0000  0.0000
    1GR     C79   79   0.638   1.351   1.900  0.0000  0.0000  0.0000
    1GR     C80   80   0.780   1.351   1.900  0.0000  0.0000  0.0000
    1GR     C81   81   0.425   1.474   1.900  0.0000  0.0000  0.0000
    1GR     C82   82   0.567   1.474   1.900  0.0000  0.0000  0.0000
    1GR     C83   83   0.638   1.596   1.900  0.0000  0.0000  0.0000
    1GR     C84   84   0.780   1.596   1.900  0.0000  0.0000  0.0000
    1GR     C85   85   0.425   1.719   1.900  0.0000  0.0000  0.0000
    1GR     C86   86   0.567   1.719   1.900  0.0000  0.0000  0.0000
    1GR     C87   87   0.638   1.842   1.900  0.0000  0.0000  0.0000
    1GR     C88   88   0.780   1.842   1.900  0.0000  0.0000  0.0000
    1GR     C89   89   0.425   1.965   1.900  0.0000  0.0000  0.0000
    1GR     C90   90   0.567   1.965   1.900  0.0000  0.0000  0.0000
    1GR     C91   91   0.638   2.088   1.900  0.0000  0.0000  0.0000
    1GR     C92   92   0.780   2.088   1.900  0.0000  0.0000  0.0000
    1GR     C93   93   0.425   2.210   1.900  0.0000  0.0000  0.0000
    1GR     C94   94   0.567   2.210   1.900  0.0000  0.0000  0.0000
    1GR     C95   95   0.638   2.333   1.900  0.0000  0.0000  0.0000
    1GR     C96   96   0.780   2.333   1.900  0.0000  0.0000  0.0000
    1GR     C97   97   0.425   2.456   1.900  0.0000  0.0000  0.0000
    1GR     C98   98   0.567   2.456   1.900  0.0000  0.0000  0.0000
    1GR     C99   99   0.638   2.579   1.900  0.0000  0.0000  0.0000
    1GR    C100  100   0.780   2.579   1.900  0.0000  0.0000  0.0000
    1GR    C101  101   0.425   2.702   1.900  0.0000  0.0000  0.0000
    1GR    C102  102   0.567   2.702   1.900  0.0000  0.0000  0.0000
    1GR    C103  103   0.638   2.824   1.900  0.0000  0.0000  0.0000
    1GR    C104  104   0.780   2.824   1.900  0.0000  0.0000  0.0000
    1GR    C105  105   0.425   2.947   1.900  0.0000  0.0000  0.0000
    1GR    C106  106   0.567   2.947   1.900  0.0000  0.0000  0.0000
    1GR    C107  107   0.638   3.070   1.900  0.0000  0.0000  0.0000
    1GR    C108  108   0.780   3.070   1.900  0.0000  0.0000  0.0000
    1GR    C109  109   0.425   3.193   1.900  0.0000  0.0000  0.0000
    1GR    C110  110   0.567   3.193   1.900  0.0000  0.0000  0.0000
    1GR    C111  111   0.638   3.316   1.900  0.0000  0.0000  0.0000
    1GR    C112  112   0.780   3.316   1.900  0.0000  0.0000  0.0000
    1GR    C113  113   0.851   0.000   1.900  0.0000  0.0000  0.0000
    1GR    C114  114   0.993   0.000   1.900  0.0000  0.0000  0.0000
    1GR    C115  115   1.064   0.123   1.900  0.0000  0.0000  0.0000
    1GR    C116  116   1.205   0.123   1.900  0.0000  0.0000  0.0000
    1GR    C117  117   0.851   0.246   1.900  0.0000  0.0000  0.0000
    1GR    C118  118   0.993   0.246   1.900  0.0000  0.0000  0.0000
    1GR    C119  119   1.064   0.368   1.900  0.0000  0.0000  0.0000
    1GR    C120  120   1.205   0.368   1.900  0.0000  0.0000  0.0000
    1GR    C121  121   0.851   0.491   1.900  0.0000  0.0000  0.0000
    1GR    C122  122   0.993   0.491   1.900  0.0000  0.0000  0.0000
    1GR    C123  123   1.064   0.614   1.900  0.0000  0.0000  0.0000
    1GR    C124  124   1.205   0.614   1.900  0.0000  0.0000  0.0000
    1GR    C125  125   0.851   0.737   1.900  0.0000  0.0000  0.0000
    1GR    C126  126   0.993   0.737   1.900  0.0000  0.0000  0.0000
    1GR    C127  127   1.064   0.860   1.900  0.0000  0.0000  0.0000
    1GR    C128  128   1.205   0.860   1.900  0.0000  0.0000  0.0000
    1GR    C129  129   0.851   0.982   1.900  0.0000  0.0000  0.0000
    1GR    C130  130   0.993   0.982   1.900  0.0000  0.0000  0.0000
    1GR    C131  131   1.064   1.105   1.900  0.0000  0.0000  0.0000
    1GR    C132  132   1.205   1.105   1.900  0.0000  0.0000  0.0000
    1GR    C133  133   0.851   1.228   1.900  0.0000  0.0000  0.0000
    1GR    C134  134   0.993   1.228   1.900  0.0000  0.0000  0.0000
    1GR    C135  135   1.064   1.351   1.900  0.0000  0.0000  0.0000
    1GR    C136  136   1.205   1.351   1.900  0.0000  0.0000  0.0000
    1GR    C137  137   0.851   1.474   1.900  0.0000  0.0000  0.0000
    1GR    C138  138   0.993   1.474   1.900  0.0000  0.0000  0.0000
    1GR    C139  139   1.064   1.596   1.900  0.0000  0.0000  0.0000
    1GR    C140  140   1.205   1.596   1.900  0.0000  0.0000  0.0000
    1GR    C141  141   0.851   1.719   1.900  0.0000  0.0000  0.0000
    1GR    C142  142   0.993   1.719   1.900  0.0000  0.0000  0.0000
    1GR    C143  143   1.064   1.842   1.900  0.0000  0.0000  0.0000
    1GR    C144  144   1.205   1.842   1.900  0.0000  0.0000  0.0000
    1GR    C145  145   0.851   1.965   1.900  0.0000  0.0000  0.0000
    1GR    C146  146   0.993   1.965   1.900  0.0000  0.0000  0.0000
    1GR    C147  147   1.064   2.088   1.900  0.0000  0.0000  0.0000
    1GR    C148  148   1.205   2.088   1.900  0.0000  0.0000  0.0000
    1GR    C149  149   0.851   2.210   1.900  0.0000  0.0000  0.0000
    1GR    C150  150   0.993   2.210   1.900  0.0000  0.0000  0.0000
    1GR    C151  151   1.064   2.333   1.900  0.0000  0.0000  0.0000
    1GR    C152  152   1.205   2.333   1.900  0.0000  0.0000  0.0000
    1GR    C153  153   0.851   2.456   1.900  0.0000  0.0000  0.0000
    1GR    C154  154   0.993   2.456   1.900  0.0000  0.0000  0.0000
    1GR    C155  155   1.064   2.579   1.900  0.0000  0.0000  0.0000
    1GR    C156  156   1.205   2.579   1.900  0.0000  0.0000  0.0000
    1GR    C157  157   0.851   2.702   1.900  0.0000  0.0000  0.0000
    1GR    C158  158   0.993   2.702   1.900  0.0000  0.0000  0.0000
    1GR    C159  159   1.064   2.824   1.900  0.0000  0.0000  0.0000
    1GR    C160  160   1.205   2.824   1.900  0.0000  0.0000  0.0000
    1GR    C161  161   0.851   2.947   1.900  0.0000  0.0000  0.0000
    1GR    C162  162   0.993   2.947   1.900  0.0000  0.0000  0.0000
    1GR    C163  163   1.064   3.070   1.900  0.0000  0.0000  0.0000
    1GR    C164  164   1.205   3.070   1.900  0.0000  0.0000  0.0000
    1GR    C165  165   0.851   3.193   1.900  0.0000  0.0000  0.0000
    1GR    C166  166   0.993   3.193   1.900  0.0000  0.0000  0.0000
    1GR    C167  167   1.064   3.316   1.900  0.0000  0.0000  0.0000
    1GR    C168  168   1.205   3.316   1.900  0.0000  0.0000  0.0000
    1GR    C169  169   1.276   3.438   1.900  0.0000  0.0000  0.0000
    1GR    C170  170   1.418   0.000   1.900  0.0000  0.0000  0.0000
    1GR    C171  171   1.489   0.123   1.900  0.0000  0.0000  0.0000
    1GR    C172  172   1.631   0.123   1.900  0.0000  0.0000  0.0000
    1GR    C173  173   1.276   0.246   1.900  0.0000  0.0000  0.0000
    1GR    C174  174   1.418   0.246   1.900  0.0000  0.0000  0.0000
    1GR    C175  175   1.489   0.368   1.900  0.0000  0.0000  0.0000
    1GR    C176  176   1.631   0.368   1.900  0.0000  0.0000  0.0000
    1GR    C177  177   1.276   0.491   1.900  0.0000  0.0000  0.0000
    1GR    C178  178   1.418   0.491   1.900  0.0000  0.0000  0.0000
    1GR    C179  179   1.489   0.614   1.900  0.0000  0.0000  0.0000
    1GR    C180  180   1.631   0.614   1.900  0.0000  0.0000  0.0000
    1GR    C181  181   1.276   0.737   1.900  0.0000  0.0000  0.0000
    1GR    C182  182   1.418   0.737   1.900  0.0000  0.0000  0.0000
    1GR    C183  183   1.489   0.860   1.900  0.0000  0.0000  0.0000
    1GR    C184  184   1.631   0.860   1.900  0.0000  0.0000  0.0000
    1GR    C185  185   1.276   0.982   1.900  0.0000  0.0000  0.0000
    1GR    C186  186   1.418   0.982   1.900  0.0000  0.0000  0.0000
    1GR    C187  187   1.489   1.105   1.900  0.0000  0.0000  0.0000
    1GR    C188  188   1.631   1.105   1.900  0.0000  0.0000  0.0000
    1GR    C189  189   1.276   1.228   1.900  0.0000  0.0000  0.0000
    1GR    C190  190   1.418   1.228   1.900  0.0000  0.0000  0.0000
    1GR    C191  191   1.489   1.351   1.900  0.0000  0.0000  0.0000
    1GR    C192  192   1.631   1.351   1.900  0.0000  0.0000  0.0000
    1GR    C193  193   1.276   1.474   1.900  0.0000  0.0000  0.0000
    1GR    C194  194   1.418   1.474   1.900  0.0000  0.0000  0.0000
    1GR    C195  195   1.489   1.596   1.900  0.0000  0.0000  0.0000
    1GR    C196  196   1.631   1.596   1.900  0.0000  0.0000  0.0000
    1GR    C197  197   1.276   1.719   1.900  0.0000  0.0000  0.0000
    1GR    C198  198   1.418   1.719   1.900  0.0000  0.0000  0.0000
    1GR    C199  199   1.489   1.842   1.900  0.0000  0.0000  0.0000
    1GR    C200  200   1.631   1.842   1.900  0.0000  0.0000  0.0000
    1GR    C201  201   1.276   1.965   1.900  0.0000  0.0000  0.0000
    1GR    C202  202   1.418   1.965   1.900  0.0000  0.0000  0.0000
    1GR    C203  203   1.489   2.088   1.900  0.0000  0.0000  0.0000
    1GR    C204  204   1.631   2.088   1.900  0.0000  0.0000  0.0000
    1GR    C205  205   1.276   2.210   1.900  0.0000  0.0000  0.0000
    1GR    C206  206   1.418   2.210   1.900  0.0000  0.0000  0.0000
    1GR    C207  207   1.489   2.333   1.900  0.0000  0.0000  0.0000
    1GR    C208  208   1.631   2.333   1.900  0.0000  0.0000  0.0000
    1GR    C209  209   1.276   2.456   1.900  0.0000  0.0000  0.0000
    1GR    C210  210   1.418   2.456   1.900  0.0000  0.0000  0.0000
    1GR    C211  211   1.489   2.579   1.900  0.0000  0.0000  0.0000
    1GR    C212  212   1.631   2.579   1.900  0.0000  0.0000  0.0000
    1GR    C213  213   1.276   2.702   1.900  0.0000  0.0000  0.0000
    1GR    C214  214   1.418   2.702   1.900  0.0000  0.0000  0.0000
    1GR    C215  215   1.489   2.824   1.900  0.0000  0.0000  0.0000
    1GR    C216  216   1.631   2.824   1.900  0.0000  0.0000  0.0000
    1GR    C217  217   1.276   2.947   1.900  0.0000  0.0000  0.0000
    1GR    C218  218   1.418   2.947   1.900  0.0000  0.0000  0.0000
    1GR    C219  219   1.489   3.070   1.900  0.0000  0.0000  0.0000
    1GR    C220  220   1.631   3.070   1.900  0.0000  0.0000  0.0000
    1GR    C221  221   1.276   3.193   1.900  0.0000  0.0000  0.0000
    1GR    C222  222   1.418   3.193   1.900  0.0000  0.0000  0.0000
    1GR    C223  223   1.489   3.316   1.900  0.0000  0.0000  0.0000
    1GR    C224  224   1.631   3.316   1.900  0.0000  0.0000  0.0000
    1GR    C225  225   1.702   0.000   1.900  0.0000  0.0000  0.0000
    1GR    C226  226   1.843   0.000   1.900  0.0000  0.0000  0.0000
    1GR    C227  227   1.914   0.123   1.900  0.0000  0.0000  0.0000
    1GR    C228  228   2.056   0.123   1.900  0.0000  0.0000  0.0000
    1GR    C229  229   1.702   0.246   1.900  0.0000  0.0000  0.0000
    1GR    C230  230   1.843   0.246   1.900  0.0000  0.0000  0.0000
    1GR    C231  231   1.914   0.368   1.900  0.0000  0.0000  0.0000
    1GR    C232  232   2.056   0.368   1.900  0.0000  0.0000  0.0000
    1GR    C233  233   1.702   0.491   1.900  0.0000  0.0000  0.0000
    1GR    C234  234   1.843   0.491   1.900  0.0000  0.0000  0.0000
    1GR    C235  235   1.914   0.614   1.900  0.0000  0.0000  0.0000
    1GR    C236  236   2.056   0.614   1.900  0.0000  0.0000  0.0000
    1GR    C237  237   1.702   0.737   1.900  0.0000  0.0000  0.0000
    1GR    C238  238   1.843   0.737   1.900  0.0000  0.0000  0.0000
    1GR    C239  239   1.914   0.860   1.900  0.0000  0.0000  0.0000
    1GR    C240  240   2.056   0.860   1.900  0.0000  0.0000  0.0000
    1GR    C241  241   1.702   0.982   1.900  0.0000  0.0000  0.0000
    1GR    C242  242   1.843   0.982   1.900  0.0000  0.0000  0.0000
    1GR    C243  243   1.914   1.105   1.900  0.0000  0.0000  0.0000
    1GR    C244  244   2.056   1.105   1.900  0.0000  0.0000  0.0000
    1GR    C245  245   1.702   1.228   1.900  0.0000  0.0000  0.0000
    1GR    C246  246   1.843   1.228   1.900  0.0000  0.0000  0.0000
    1GR    C247  247   1.914   1.351   1.900  0.0000  0.0000  0.0000
    1GR    C248  248   2.056   1.351   1.900  0.0000  0.0000  0.0000
    1GR    C249  249   1.702   1.474   1.900  0.0000  0.0000  0.0000
    1GR    C250  250   1.843   1.474   1.900  0.0000  0.0000  0.0000
    1GR    C251  251   1.914   1.596   1.900  0.0000  0.0000  0.0000
    1GR    C252  252   2.056   1.596   1.900  0.0000  0.0000  0.0000
    1GR    C253  253   1.702   1.719   1.900  0.0000  0.0000  0.0000
    1GR    C254  254   1.843   1.719   1.900  0.0000  0.0000  0.0000
    1GR    C255  255   1.914   1.842   1.900  0.0000  0.0000  0.0000
    1GR    C256  256   2.056   1.842   1.900  0.0000  0.0000  0.0000
    1GR    C257  257   1.702   1.965   1.900  0.0000  0.0000  0.0000
    1GR    C258  258   1.843   1.965   1.900  0.0000  0.0000  0.0000
    1GR    C259  259   1.914   2.088   1.900  0.0000  0.0000  0.0000
    1GR    C260  260   2.056   2.088   1.900  0.0000  0.0000  0.0000
    1GR    C261  261   1.702   2.210   1.900  0.0000  0.0000  0.0000
    1GR    C262  262   1.843   2.210   1.900  0.0000  0.0000  0.0000
    1GR    C263  263   1.914   2.333   1.900  0.0000  0.0000  0.0000
    1GR    C264  264   2.056   2.333   1.900  0.0000  0.0000  0.0000
    1GR    C265  265   1.702   2.456   1.900  0.0000  0.0000  0.0000
    1GR    C266  266   1.843   2.456   1.900  0.0000  0.0000  0.0000
    1GR    C267  267   1.914   2.579   1.900  0.0000  0.0000  0.0000
    1GR    C268  268   2.056   2.579   1.900  0.0000  0.0000  0.0000
    1GR    C269  269   1.702   2.702   1.900  0.0000  0.0000  0.0000
    1GR    C270  270   1.843   2.702   1.900  0.0000  0.0000  0.0000
    1GR    C271  271   1.914   2.824   1.900  0.0000  0.0000  0.0000
    1GR    C272  272   2.056   2.824   1.900  0.0000  0.0000  0.0000
    1GR    C273  273   1.702   2.947   1.900  0.0000  0.0000  0.0000
    1GR    C274  274   1.843   2.947   1.900  0.0000  0.0000  0.0000
    1GR    C275  275   1.914   3.070   1.900  0.0000  0.0000  0.0000
    1GR    C276  276   2.056   3.070   1.900  0.0000  0.0000  0.0000
    1GR    C277  277   1.702   3.193   1.900  0.0000  0.0000  0.0000
    1GR    C278  278   1.843   3.193   1.900  0.0000  0.0000  0.0000
    1GR    C279  279   1.914   3.316   1.900  0.0000  0.0000  0.0000
    1GR    C280  280   2.056   3.316   1.900  0.0000  0.0000  0.0000
    1GR    C281  281   2.127   0.000   1.900  0.0000  0.0000  0.0000
    1GR    C282  282   2.269   0.000   1.900  0.0000  0.0000  0.0000
    1GR    C283  283   2.340   0.123   1.900  0.0000  0.0000  0.0000
    1GR    C284  284   2.481   0.123   1.900  0.0000  0.0000  0.0000
    1GR    C285  285   2.127   0.246   1.900  0.0000  0.0000  0.0000
    1GR    C286  286   2.269   0.246   1.900  0.0000  0.0000  0.0000
    1GR    C287  287   2.340   0.368   1.900  0.0000  0.0000  0.0000
    1GR    C288  288   2.481   0.368   1.900  0.0000  0.0000  0.0000
    1GR    C289  289   2.127   0.491   1.900  0.0000  0.0000  0.0000
    1GR    C290  290   2.269   0.491   1.900  0.0000  0.0000  0.0000
    1GR    C291  291   2.340   0.614   1.900  0.0000  0.0000  0.0000
    1GR    C292  292   2.481   0.614   1.900  0.0000  0.0000  0.0000
    1GR    C293  293   2.127   0.737   1.900  0.0000  0.0000  0.0000
    1GR    C294  294   2.269   0.737   1.900  0.0000  0.0000  0.0000
    1GR    C295  295   2.340   0.860   1.900  0.0000  0.0000  0.0000
    1GR    C296  296   2.481   0.860   1.900  0.0000  0.0000  0.0000
    1GR    C297  297   2.127   0.982   1.900  0.0000  0.0000  0.0000
    1GR    C298  298   2.269   0.982   1.900  0.0000  0.0000  0.0000
    1GR    C299  299   2.340   1.105   1.900  0.0000  0.0000  0.0000
    1GR    C300  300   2.481   1.105   1.900  0.0000  0.0000  0.0000
    1GR    C301  301   2.127   1.228   1.900  0.0000  0.0000  0.0000
    1GR    C302  302   2.269   1.228   1.900  0.0000  0.0000  0.0000
    1GR    C303  303   2.340   1.351   1.900  0.0000  0.0000  0.0000
    1GR    C304  304   2.481   1.351   1.900  0.0000  0.0000  0.0000
    1GR    C305  305   2.127   1.474   1.900  0.0000  0.0000  0.0000
    1GR    C306  306   2.269   1.474   1.900  0.0000  0.0000  0.0000
    1GR    C307  307   2.340   1.596   1.900  0.0000  0.0000  0.0000
    1GR    C308  308   2.481   1.596   1.900  0.0000  0.0000  0.0000
    1GR    C309  309   2.127   1.719   1.900  0.0000  0.0000  0.0000
    1GR    C310  310   2.269   1.719   1.900  0.0000  0.0000  0.0000
    1GR    C311  311   2.340   1.842   1.900  0.0000  0.0000  0.0000
    1GR    C312  312   2.481   1.842   1.900  0.0000  0.0000  0.0000
    1GR    C313  313   2.127   1.965   1.900  0.0000  0.0000  0.0000
    1GR    C314  314   2.269   1.965   1.900  0.0000  0.0000  0.0000
    1GR    C315  315   2.340   2.088   1.900  0.0000  0.0000  0.0000
    1GR    C316  316   2.481   2.088   1.900  0.0000  0.0000  0.0000
    1GR    C317  317   2.127   2.210   1.900  0.0000  0.0000  0.0000
    1GR    C318  318   2.269   2.210   1.900  0.0000  0.0000  0.0000
    1GR    C319  319   2.340   2.333   1.900  0.0000  0.0000  0.0000
    1GR    C320  320   2.481   2.333   1.900  0.0000  0.0000  0.0000
    1GR    C321  321   2.127   2.456   1.900  0.0000  0.0000  0.0000
    1GR    C322  322   2.269   2.456   1.900  0.0000  0.0000  0.0000
    1GR    C323  323   2.340   2.579   1.900  0.0000  0.0000  0.0000
    1GR    C324  324   2.481   2.579   1.900  0.0000  0.0000  0.0000
    1GR    C325  325   2.127   2.702   1.900  0.0000  0.0000  0.0000
    1GR    C326  326   2.269   2.702   1.900  0.0000  0.0000  0.0000
    1GR    C327  327   2.340   2.824   1.900  0.0000  0.0000  0.0000
    1GR    C328  328   2.481   2.824   1.900  0.0000  0.0000  0.0000
    1GR    C329  329   2.127   2.947   1.900  0.0000  0.0000  0.0000
    1GR    C330  330   2.269   2.947   1.900  0.0000  0.0000  0.0000
    1GR    C331  331   2.340   3.070   1.900  0.0000  0.0000  0.0000
    1GR    C332  332   2.481   3.070   1.900  0.0000  0.0000  0.0000
    1GR    C333  333   2.127   3.193   1.900  0.0000  0.0000  0.0000
    1GR    C334  334   2.269   3.193   1.900  0.0000  0.0000  0.0000
    1GR    C335  335   2.340   3.316   1.900  0.0000  0.0000  0.0000
    1GR    C336  336   2.481   3.316   1.900  0.0000  0.0000  0.0000
    1GR    C337  337   2.552   0.000   1.900  0.0000  0.0000  0.0000
    1GR    C338  338   2.694   0.000   1.900  0.0000  0.0000  0.0000
    1GR    C339  339   2.765   0.123   1.900  0.0000  0.0000  0.0000
    1GR    C340  340   2.907   0.123   1.900  0.0000  0.0000  0.0000
    1GR    C341  341   2.552   0.246   1.900  0.0000  0.0000  0.0000
    1GR    C342  342   2.694   0.246   1.900  0.0000  0.0000  0.0000
    1GR    C343  343   2.765   0.368   1.900  0.0000  0.0000  0.0000
    1GR    C344  344   2.907   0.368   1.900  0.0000  0.0000  0.0000
    1GR    C345  345   2.552   0.491   1.900  0.0000  0.0000  0.0000
    1GR    C346  346   2.694   0.491   1.900  0.0000  0.0000  0.0000
    1GR    C347  347   2.765   0.614   1.900  0.0000  0.0000  0.0000
    1GR    C348  348   2.907   0.614   1.900  0.0000  0.0000  0.0000
    1GR    C349  349   2.552   0.737   1.900  0.0000  0.0000  0.0000
    1GR    C350  350   2.694   0.737   1.900  0.0000  0.0000  0.0000
    1GR    C351  351   2.765   0.860   1.900  0.0000  0.0000  0.0000
    1GR    C352  352   2.907   0.860   1.900  0.0000  0.0000  0.0000
    1GR    C353  353   2.552   0.982   1.900  0.0000  0.0000  0.0000
    1GR    C354  354   2.694   0.982   1.900  0.0000  0.0000  0.0000
    1GR    C355  355   2.765   1.105   1.900  0.0000  0.0000  0.0000
    1GR    C356  356   2.907   1.105   1.900  0.0000  0.0000  0.0000
    1GR    C357  357   2.552   1.228   1.900  0.0000  0.0000  0.0000
    1GR    C358  358   2.694   1.228   1.900  0.0000  0.0000  0.0000
    1GR    C359  359   2.765   1.351   1.900  0.0000  0.0000  0.0000
    1GR    C360  360   2.907   1.351   1.900  0.0000  0.0000  0.0000
    1GR    C361  361   2.552   1.474   1.900  0.0000  0.0000  0.0000
    1GR    C362  362   2.694   1.474   1.900  0.0000  0.0000  0.0000
    1GR    C363  363   2.765   1.596   1.900  0.0000  0.0000  0.0000
    1GR    C364  364   2.907   1.596   1.900  0.0000  0.0000  0.0000
    1GR    C365  365   2.552   1.719   1.900  0.0000  0.0000  0.0000
    1GR    C366  366   2.694   1.719   1.900  0.0000  0.0000  0.0000
    1GR    C367  367   2.765   1.842   1.900  0.0000  0.0000  0.0000
    1GR    C368  368   2.907   1.842   1.900  0.0000  0.0000  0.0000
    1GR    C369  369   2.552   1.965   1.900  0.0000  0.0000  0.0000
    1GR    C370  370   2.694   1.965   1.900  0.0000  0.0000  0.0000
    1GR    C371  371   2.765   2.088   1.900  0.0000  0.0000  0.0000
    1GR    C372  372   2.907   2.088   1.900  0.0000  0.0000  0.0000
    1GR    C373  373   2.552   2.210   1.900  0.0000  0.0000  0.0000
    1GR    C374  374   2.694   2.210   1.900  0.0000  0.0000  0.0000
    1GR    C375  375   2.765   2.333   1.900  0.0000  0.0000  0.0000
    1GR    C376  376   2.907   2.333   1.900  0.0000  0.0000  0.0000
    1GR    C377  377   2.552   2.456   1.900  0.0000  0.0000  0.0000
    1GR    C378  378   2.694   2.456   1.900  0.0000  0.0000  0.0000
    1GR    C379  379   2.765   2.579   1.900  0.0000  0.0000  0.0000
    1GR    C380  380   2.907   2.579   1.900  0.0000  0.0000  0.0000
    1GR    C381  381   2.552   2.702   1.900  0.0000  0.0000  0.0000
    1GR    C382  382   2.694   2.702   1.900  0.0000  0.0000  0.0000
    1GR    C383  383   2.765   2.824   1.900  0.0000  0.0000  0.0000
    1GR    C384  384   2.907   2.824   1.900  0.0000  0.0000  0.0000
    1GR    C385  385   2.552   2.947   1.900  0.0000  0.0000  0.0000
    1GR    C386  386   2.694   2.947   1.900  0.0000  0.0000  0.0000
    1GR    C387  387   2.765   3.070   1.900  0.0000  0.0000  0.0000
    1GR    C388  388   2.907   3.070   1.900  0.0000  0.0000  0.0000
    1GR    C389  389   2.552   3.193   1.900  0.0000  0.0000  0.0000
    1GR    C390  390   2.694   3.193   1.900  0.0000  0.0000  0.0000
    1GR    C391  391   2.765   3.316   1.900  0.0000  0.0000  0.0000
    1GR    C392  392   2.907   3.316   1.900  0.0000  0.0000  0.0000
    1GR    C393  393   2.978   0.000   1.900  0.0000  0.0000  0.0000
    1GR    C394  394   3.120   0.000   1.900  0.0000  0.0000  0.0000
    1GR    C395  395   3.191   0.123   1.900  0.0000  0.0000  0.0000
    1GR    C396  396   3.332   0.123   1.900  0.0000  0.0000  0.0000
    1GR    C397  397   2.978   0.246   1.900  0.0000  0.0000  0.0000
    1GR    C398  398   3.120   0.246   1.900  0.0000  0.0000  0.0000
    1GR    C399  399   3.191   0.368   1.900  0.0000  0.0000  0.0000
    1GR    C400  400   3.332   0.368   1.900  0.0000  0.0000  0.0000
    1GR    C401  401   2.978   0.491   1.900  0.0000  0.0000  0.0000
    1GR    C402  402   3.120   0.491   1.900  0.0000  0.0000  0.0000
    1GR    C403  403   3.191   0.614   1.900  0.0000  0.0000  0.0000
    1GR    C404  404   3.332   0.614   1.900  0.0000  0.0000  0.0000
    1GR    C405  405   2.978   0.737   1.900  0.0000  0.0000  0.0000
    1GR    C406  406   3.120   0.737   1.900  0.0000  0.0000  0.0000
    1GR    C407  407   3.191   0.860   1.900  0.0000  0.0000  0.0000
    1GR    C408  408   3.332   0.860   1.900  0.0000  0.0000  0.0000
    1GR    C409  409   2.978   0.982   1.900  0.0000  0.0000  0.0000
    1GR    C410  410   3.120   0.982   1.900  0.0000  0.0000  0.0000
    1GR    C411  411   3.191   1.105   1.900  0.0000  0.0000  0.0000
    1GR    C412  412   3.332   1.105   1.900  0.0000  0.0000  0.0000
    1GR    C413  413   2.978   1.228   1.900  0.0000  0.0000  0.0000
    1GR    C414  414   3.120   1.228   1.900  0.0000  0.0000  0.0000
    1GR    C415  415   3.191   1.351   1.900  0.0000  0.0000  0.0000
    1GR    C416  416   3.332   1.351   1.900  0.0000  0.0000  0.0000
    1GR    C417  417   2.978   1.474   1.900  0.0000  0.0000  0.0000
    1GR    C418  418   3.120   1.474   1.900  0.0000  0.0000  0.0000
    1GR    C419  419   3.191   1.596   1.900  0.0000  0.0000  0.0000
    1GR    C420  420   3.332   1.596   1.900  0.0000  0.0000  0.0000
    1GR    C421  421   2.978   1.719   1.900  0.0000  0.0000  0.0000
    1GR    C422  422   3.120   1.719   1.900  0.0000  0.0000  0.0000
    1GR    C423  423   3.191   1.842   1.900  0.0000  0.0000  0.0000
    1GR    C424  424   3.332   1.842   1.900  0.0000  0.0000  0.0000
    1GR    C425  425   2.978   1.965   1.900  0.0000  0.0000  0.0000
    1GR    C426  426   3.120   1.965   1.900  0.0000  0.0000  0.0000
    1GR    C427  427   3.191   2.088   1.900  0.0000  0.0000  0.0000
    1GR    C428  428   3.332   2.088   1.900  0.0000  0.0000  0.0000
    1GR    C429  429   2.978   2.210   1.900  0.0000  0.0000  0.0000
    1GR    C430  430   3.120   2.210   1.900  0.0000  0.0000  0.0000
    1GR    C431  431   3.191   2.333   1.900  0.0000  0.0000  0.0000
    1GR    C432  432   3.332   2.333   1.900  0.0000  0.0000  0.0000
    1GR    C433  433   2.978   2.456   1.900  0.0000  0.0000  0.0000
    1GR    C434  434   3.120   2.456   1.900  0.0000  0.0000  0.0000
    1GR    C435  435   3.191   2.579   1.900  0.0000  0.0000  0.0000
    1GR    C436  436   3.332   2.579   1.900  0.0000  0.0000  0.0000
    1GR    C437  437   2.978   2.702   1.900  0.0000  0.0000  0.0000
    1GR    C438  438   3.120   2.702   1.900  0.0000  0.0000  0.0000
    1GR    C439  439   3.191   2.824   1.900  0.0000  0.0000  0.0000
    1GR    C440  440   3.332   2.824   1.900  0.0000  0.0000  0.0000
    1GR    C441  441   2.978   2.947   1.900  0.0000  0.0000  0.0000
    1GR    C442  442   3.120   2.947   1.900  0.0000  0.0000  0.0000
    1GR    C443  443   3.191   3.070   1.900  0.0000  0.0000  0.0000
    1GR    C444  444   3.332   3.070   1.900  0.0000  0.0000  0.0000
    1GR    C445  445   2.978   3.193   1.900  0.0000  0.0000  0.0000
    1GR    C446  446   3.120   3.193   1.900  0.0000  0.0000  0.0000
    1GR    C447  447   3.191   3.316   1.900  0.0000  0.0000  0.0000
    1GR    C448  448   3.332   3.316   1.900  0.0000  0.0000  0.0000
    2PMMA   CX1  449   2.990   1.237   2.416 -0.6392  0.2722 -0.4129
    2PMMA   CA2  450   3.083   1.358   2.397 -0.0575  0.0309 -0.2725
    2PMMA   CX3  451   3.162   1.328   2.267  0.7172 -0.6908  0.3249
    2PMMA    C4  452   2.992   1.488   2.388 -0.2092 -0.5288  0.2696
    2PMMA    O5  453   2.912   1.526   2.469 -0.4590 -0.0291 -0.0118
    2PMMA   OS6  454   3.025   1.564   2.280 -0.2786 -0.7695  0.4591
    2PMMA   CE7  455   2.992   1.703   2.269 -0.6042 -0.1372 -0.2528
    2PMMA   CX8  456   3.169   1.367   2.531 -0.2646 -0.3857 -0.3787
    2PMMA   CA9  457   3.301   1.447   2.547 -0.1224  0.4389 -0.1705
    2PMMA  CX10  458   3.411   1.390   2.448 -0.1421 -0.6729  0.2537
    2PMMA   C11  459   3.339   1.419   2.696 -0.2616 -0.2887  0.2876
    2PMMA   O12  460   3.422   1.337   2.723  0.6850  0.1423  0.3642
    2PMMA  OS13  461   3.264   1.479   2.793  0.0412  0.0026  0.5643
    2PMMA  CE14  462   3.313   1.475   2.926 -0.0696 -0.0623 -0.4269
    2PMMA  CX15  463   3.268   1.597   2.536 -0.0515  0.3583  0.2278
    2PMMA  CA16  464   3.374   1.710   2.549 -0.1391  0.6502  0.2268
    2PMMA  CX17  465   3.290   1.844   2.565 -0.0975 -0.1769 -0.3245
    2PMMA   C18  466   3.464   1.701   2.678  0.4605  0.2513 -0.4744
    2PMMA   O19  467   3.441   1.760   2.782  0.4386  0.4784 -0.4210
    2PMMA  OS20  468   3.582   1.636   2.661 -0.0276  0.3228 -0.3977
    2PMMA  CE21  469   3.653   1.588   2.770  0.0709  0.1008  0.1392
    2PMMA  CX22  470   3.451   1.715   2.408  0.3466  0.0848  0.5201
    2PMMA  CA23  471   3.515   1.839   2.346 -0.4489 -0.6536 -0.4427
    2PMMA  CX24  472   3.608   1.903   2.447 -0.3925 -1.0804 -0.3325
    2PMMA   C25  473   3.398   1.928   2.289  1.0257 -0.0589  0.2266
    2PMMA   O26  474   3.289   1.886   2.246  0.0225  0.0103  0.9400
    2PMMA  OS27  475   3.416   2.062   2.302 -0.1870 -0.1031  0.3556
    2PMMA  CE28  476   3.301   2.152   2.286 -0.0437 -0.2887  0.0893
    2PMMA  CX29  477   3.597   1.806   2.219  0.9007 -0.4523 -0.1277
    2PMMA  HC30  478   3.040   1.141   2.397  1.2414  1.3699 -1.0629
    2PMMA  HC31  479   2.940   1.227   2.513  0.6779 -1.3117  0.1345
    2PMMA  HC32  480   2.912   1.240   2.339  1.7200  1.0519 -2.8265
    2PMMA  HC33  481   3.216   1.419   2.241 -2.1019  0.5999 -1.3117
    2PMMA  HC34  482   3.094   1.309   2.183 -1.7947  0.9115  1.9089
    2PMMA  HC35  483   3.228   1.241   2.276  0.6170 -0.8673 -0.5420
    2PMMA  H136  484   3.020   1.755   2.361  0.0835  0.0439 -0.5589
    2PMMA  H137  485   2.884   1.715   2.261 -0.3520  1.4053 -1.9281
    2PMMA  H138  486   3.036   1.748   2.179 -0.5619  0.7528  0.2079
    2PMMA  HC39  487   3.097   1.386   2.612  0.3396  3.6253 -0.6839
    2PMMA  HC40  488   3.205   1.266   2.549 -0.1083 -0.1605  0.6025
    2PMMA  HC41  489   3.420   1.281   2.439  1.8546 -0.5573  0.5810
    2PMMA  HC42  490   3.400   1.425   2.344 -0.4596  0.4166  0.6498
    2PMMA  HC43  491   3.513   1.421   2.475 -0.8410  1.4547  0.5662
    2PMMA  H144  492   3.316   1.375   2.969  1.1302  1.0004  2.0701
    2PMMA  H145  493   3.255   1.546   2.986 -1.4312 -0.8502 -0.7988
    2PMMA  H146  494   3.416   1.511   2.931 -0.2438  0.2719  1.0344
    2PMMA  HC47  495   3.222   1.617   2.439  2.0321  2.5061 -0.3485
    2PMMA  HC48  496   3.182   1.620   2.600 -0.7750  0.4988 -0.7859
    2PMMA  HC49  497   3.215   1.842   2.644  0.7362  1.1307  0.5261
    2PMMA  HC50  498   3.225   1.866   2.480 -2.3729 -1.0963  1.1300
    2PMMA  HC51  499   3.360   1.928   2.578 -2.2236  1.6289 -0.2733
    2PMMA  H152  500   3.716   1.506   2.735 -0.0130  0.1257 -0.0711
    2PMMA  H153  501   3.579   1.556   2.843 -1.6037  1.9998 -0.6889
    2PMMA  H154  502   3.712   1.670   2.812  1.4140  0.1882 -1.8370
    2PMMA  HC55  503   3.539   1.653   2.432 -0.8275 -1.6786  0.3545
    2PMMA  HC56  504   3.400   1.667   2.325 -0.1270  1.0791  0.2345
    2PMMA  HC57  505   3.692   1.953   2.397 -0.4637  0.0922  0.6898
    2PMMA  HC58  506   3.560   1.985   2.501  2.2215 -1.3448  2.6028
    2PMMA  HC59  507   3.647   1.828   2.518 -2.6827 -1.8384  0.1528
    2PMMA  H160  508   3.276   2.153   2.180  2.3393 -1.0312 -0.5057
    2PMMA  H161  509   3.331   2.250   2.324 -0.7344  0.0536 -0.2298
    2PMMA  H162  510   3.218   2.112   2.346  0.8436  1.1945  2.3890
    2PMMA  HC63  511   3.540   1.769   2.133 -2.0882  0.7756  1.2456
    2PMMA  HC64  512   3.658   1.890   2.185  1.4102 -0.3835  0.9449
    2PMMA  HC65  513   3.675   1.734   2.242  3.1732  2.2757  0.9885
    3THF     C1  514   1.866   1.154   1.544 -0.7605  0.9256  0.2041
    3THF     C2  515   1.920   1.149   1.399  0.5294  0.3389  0.2477
    3THF     C3  516   1.803   1.082   1.331  0.5848  0.2112  0.7190
    3THF     O1  517   1.760   0.982   1.427 -0.7698  0.0049 -0.1980
    3THF     C4  518   1.784   1.034   1.564 -0.1872 -0.7085  0.1576
    3THF     H1  519   1.953   1.147   1.610 -0.3216 -4.0575 -0.7042
    3THF     H2  520   1.820   1.249   1.572 -0.3907  1.7853 -1.9828
    3THF     H3  521   2.015   1.097   1.380  0.1192 -0.8518  1.4502
    3THF     H4  522   1.940   1.248   1.355  1.7807  0.0657  0.1724
    3THF     H5  523   1.721   1.154   1.321  0.8048  0.7135  2.4157
    3THF     H6  524   1.823   1.034   1.234 -2.7620  1.4107 -0.6455
    3THF     H7  525   1.687   1.072   1.600 -0.6885 -3.1270  1.4906
    3THF     H8  526   1.819   0.960   1.637 -0.6749 -0.8599  0.2412
    4THF     C1  527   1.924   1.992   1.525 -0.2615  0.0248 -0.7494
    4THF     C2  528   1.915   2.074   1.391  0.3146  0.0932 -0.2400
    4THF     C3  529   1.962   1.955   1.294 -0.1643 -0.0445  0.5040
    4THF     O1  530   2.056   1.877   1.372 -0.3442 -0.0970  0.3850
    4THF     C4  531   2.070   1.942   1.497 -1.0043 -0.1538  0.0630
    4THF     H1  532   1.928   2.060   1.611 -0.7615 -1.1168  0.1762
    4THF     H2  533   1.842   1.921   1.538  0.1556 -0.6075 -1.5513
    4THF     H3  534   1.976   2.164   1.389  1.2922 -0.5661 -0.1308
    4THF     H4  535   1.811   2.101   1.367  0.6941 -0.0924 -2.1626
    4THF     H5  536   1.881   1.884   1.273 -1.5970  0.8897  2.7271
    4THF     H6  537   2.016   1.991   1.205  2.1739 -1.2259  1.4080
    4THF     H7  538   2.109   1.869   1.568  0.9460 -1.3045 -2.1350
    4THF     H8  539   2.143   2.024   1.490  1.4414 -2.3288 -0.6310
    5THF     C1  540   0.787   0.162   0.016 -1.1965  0.9796 -0.2767
    5THF     C2  541   0.684   0.278   0.017 -0.0630 -0.3016  0.9196
    5THF     C3  542   0.772   0.380  -0.067  0.2057 -0.1291  0.3964
    5THF     O1  543   0.818   0.298  -0.168 -0.2707  0.0139  0.0298
    5THF     C4  544   0.882   0.184  -0.101  0.1997 -0.1904  0.8938
    5THF     H1  545   0.848   0.156   0.108 -1.0813  0.7055 -0.3699
    5THF     H2  546   0.743   0.062   0.014  0.3395  0.2377  1.1970
    5THF     H3  547   0.662   0.317   0.118  1.1048 -1.3299  1.5875
    5THF     H4  548   0.587   0.246  -0.023  1.1202  0.7656 -3.0149
    5THF     H5  549   0.710   0.462  -0.105  0.9874  0.4508  0.3537
    5THF     H6  550   0.856   0.427  -0.014 -0.1563 -1.2275  1.9693
    5THF     H7  551   0.875   0.100  -0.171  0.3015  1.3145 -0.9840
    5THF     H8  552   0.988   0.196  -0.075 -0.2148  0.9688  2.0802
    6THF     C1  553   2.573   0.445   1.356 -0.6173 -0.2416 -0.5103
    6THF     C2  554   2.602   0.410   1.501  0.2912 -0.7438  0.2080
    6THF     C3  555   2.723   0.300   1.481  0.2528  0.5451  0.1754
    6THF     O1  556   2.723   0.273   1.340 -0.4437  0.4211 -0.5503
    6THF     C4  557   2.705   0.401   1.275 -0.0530 -0.1394 -0.7463
    6THF     H1  558   2.476   0.405   1.324 -0.5864 -0.4988 -0.2753
    6THF     H2  559   2.559   0.554   1.353 -1.4388 -0.3408 -0.4838
    6THF     H3  560   2.517   0.367   1.555 -0.2112  0.8920  0.7370
    6THF     H4  561   2.642   0.497   1.554 -2.1050  0.6117 -0.1668
    6THF     H5  562   2.822   0.336   1.511 -0.3212  0.3023  2.4747
    6THF     H6  563   2.699   0.204   1.529  0.4618  0.1725 -0.4643
    6THF     H7  564   2.794   0.464   1.282 -1.2699  1.8025 -2.0970
    6THF     H8  565   2.680   0.375   1.171  1.9772 -3.0260 -0.5969
    7THF     C1  566   2.438   2.313   1.170  0.0957  0.0656  0.7101
    7THF     C2  567   2.291   2.280   1.129 -0.0284  0.3016 -0.0061
    7THF     C3  568   2.300   2.126   1.119 -0.6954  0.3074 -0.2226
    7THF     O1  569   2.430   2.083   1.166  0.0091 -0.3861  0.4553
    7THF     C4  570   2.478   2.190   1.253 -0.2500 -0.2679  1.0352
    7THF     H1  571   2.506   2.303   1.085  0.5438 -0.0288  1.0796
    7THF     H2  572   2.456   2.407   1.223 -2.1264 -0.1085  1.8240
    7THF     H3  573   2.257   2.322   1.034  0.2543  0.2089 -0.1494
    7THF     H4  574   2.216   2.306   1.204  1.0523 -2.2471  2.0528
    7THF     H5  575   2.222   2.098   1.191 -0.3287  1.1974  0.5219
    7THF     H6  576   2.284   2.096   1.014  0.8778  0.0859 -0.4226
    7THF     H7  577   2.417   2.187   1.344 -2.6357 -1.4215 -0.5577
    7THF     H8  578   2.584   2.177   1.276 -0.1418 -0.4157  0.4704
    8THF     C1  579   3.167   0.430   3.167  0.4718  0.3590 -0.4018
    8THF     C2  580   3.228   0.288   3.160 -0.0733  0.1577 -0.2638
    8THF     C3  581   3.146   0.223   3.274  1.1162 -0.3135 -0.3226
    8THF     O1  582   3.020   0.275   3.253  0.1943  0.0747  0.0290
    8THF     C4  583   3.031   0.412   3.233 -0.3422  0.6419 -0.7121
    8THF     H1  584   3.228   0.496   3.230 -0.1629  1.9389 -1.4112
    8THF     H2  585   3.143   0.474   3.070 -2.2949 -1.3553 -0.5480
    8THF     H3  586   3.335   0.268   3.177 -0.5809 -2.2702  0.2210
    8THF     H4  587   3.208   0.236   3.065  0.2723 -0.1744 -0.1600
    8THF     H5  588   3.144   0.113   3.278 -2.3401 -0.3107 -0.4547
    8THF     H6  589   3.172   0.251   3.377  1.0602 -0.8290 -0.1691
    8THF     H7  590   2.941   0.438   3.175 -0.4725 -1.7676 -1.6640
    8THF     H8  591   3.024   0.455   3.333 -2.8984 -0.2141 -0.4904
    9THF     C1  592   3.244   2.586   0.523 -0.7225  0.1408 -0.1960
    9THF     C2  593   3.326   2.477   0.601  0.2818 -0.0558 -0.7900
    9THF     C3  594   3.292   2.519   0.753 -0.4607  1.1419  0.3104
    9THF     O1  595   3.258   2.658   0.751 -0.6070 -0.5390 -0.4936
    9THF     C4  596   3.264   2.711   0.616  0.5338  0.2618  0.0768
    9THF     H1  597   3.284   2.612   0.425  0.6254  2.1583  0.8531
    9THF     H2  598   3.140   2.554   0.507 -0.5955 -0.1592 -0.4226
    9THF     H3  599   3.433   2.480   0.577  0.9042  0.9853  1.9258
    9THF     H4  600   3.302   2.373   0.573 -0.6361  0.5430 -2.3170
    9THF     H5  601   3.210   2.454   0.787 -0.5777  1.3475  0.4238
    9THF     H6  602   3.377   2.499   0.819 -0.6706 -0.8443  0.0115
    9THF     H7  603   3.186   2.788   0.606  1.2237  0.9633  0.0616
    9THF     H8  604   3.362   2.757   0.598  1.3539 -1.6448 -0.3796
   10THF     C1  605   2.958   0.703   0.542 -0.2722 -0.2588  1.1903
   10THF     C2  606   3.073   0.614   0.584  0.5283 -0.0467  0.2924
   10THF     C3  607   3.090   0.540   0.451 -0.6726  0.0957  0.4880
   10THF     O1  608   2.967   0.542   0.374 -0.4760  0.2093  0.6670
   10THF     C4  609   2.868   0.595   0.461  0.6030 -0.7510 -0.2646
   10THF     H1  610   2.896   0.742   0.624 -0.5487 -1.4446  1.5516
   10THF     H2  611   3.006   0.777   0.476  2.0239 -1.3289  1.6410
   10THF     H3  612   3.049   0.540   0.661  0.7682 -0.7160 -0.2784
   10THF     H4  613   3.164   0.665   0.618  0.7522  0.4566 -1.0510
   10THF     H5  614   3.163   0.593   0.389  1.0855 -2.6320  0.1530
   10THF     H6  615   3.123   0.436   0.459  1.3727  0.5205 -1.8014
   10THF     H7  616   2.795   0.649   0.398  0.7978 -1.7253 -1.3486
   10THF     H8  617   2.829   0.524   0.534  0.8337 -0.0325  0.5610
   11THF     C1  618   0.023   1.871   0.348  0.6820  0.4817  0.3360
   11THF     C2  619  -0.030   2.005   0.286  0.7733 -0.3868  0.0397
   11THF     C3  620  -0.164   2.028   0.368 -0.3437 -0.0533  0.1827
   11THF     O1  621  -0.194   1.897   0.419  0.1582  0.3738  0.4130
   11THF     C4  622  -0.111   1.800   0.358 -0.1692  0.5102  0.5868
   11THF     H1  623   0.100   1.828   0.283  0.2712  0.0229  0.1580
   11THF     H2  624   0.073   1.891   0.444  3.6916 -0.0249 -1.0479
   11THF     H3  625  -0.060   2.006   0.181 -2.7093  2.5190  0.9611
   11THF     H4  626   0.031   2.091   0.318  0.6134 -0.4950  0.6483
   11THF     H5  627  -0.155   2.100   0.450 -1.8406 -1.8111  1.9275
   11THF     H6  628  -0.246   2.063   0.303 -0.8819 -0.1456  0.8048
   11THF     H7  629  -0.109   1.710   0.420  1.7493  0.7235  0.8482
   11THF     H8  630  -0.154   1.771   0.261  0.0770 -0.5639  0.7981
   12THF     C1  631   3.164   3.163   3.392 -0.3969  0.0154  0.0084
   12THF     C2  632   3.052   3.132   3.295 -0.1367  0.7013 -0.0801
   12THF     C3  633   3.071   2.982   3.268 -0.3071  0.5702  0.5826
   12THF     O1  634   3.121   2.929   3.393 -0.1266 -0.2458 -0.0391
   12THF     C4  635   3.145   3.037   3.481  0.0227 -0.1565 -0.6133
   12THF     H1  636   3.260   3.161   3.339 -0.4655 -1.6805 -0.0816
   12THF     H2  637   3.149   3.262   3.437  0.9124 -0.1247  0.8192
   12THF     H3  638   3.058   3.198   3.208  2.7180 -1.3517 -1.5072
   12THF     H4  639   2.950   3.150   3.329  0.5932  2.0462  1.4747
   12THF     H5  640   2.976   2.942   3.229 -2.3783  1.9202  4.0549
   12THF     H6  641   3.151   2.970   3.194  1.4765 -1.0032  2.6640
   12THF     H7  642   3.060   3.047   3.549  1.4101  0.0416  1.1308
   12THF     H8  643   3.239   3.022   3.536 -1.1194 -1.2788  1.0633
   13THF     C1  644   1.036   2.500   0.558  0.7686  0.0522 -0.5074
   13THF     C2  645   1.141   2.495   0.672 -0.5314 -0.3373 -0.2612
   13THF     C3  646   1.089   2.600   0.771 -0.0432 -0.3585  0.0658
   13THF     O1  647   1.012   2.695   0.692 -0.7151 -0.0159  0.4728
   13THF     C4  648   0.934   2.626   0.589 -0.5266 -0.2115 -0.1030
   13THF     H1  649   1.080   2.504   0.458 -1.3600  1.4655 -1.4206
   13THF     H2  650   0.970   2.413   0.570  1.1216 -0.2176 -0.5027
   13THF     H3  651   1.242   2.514   0.634 -0.8071  0.5202 -0.5813
   13THF     H4  652   1.138   2.394   0.715  0.1077 -0.1169  0.3039
   13THF     H5  653   1.025   2.547   0.843 -1.5633  0.2222 -0.8475
   13THF     H6  654   1.177   2.644   0.820 -0.4921 -2.1932  2.7007
   13THF     H7  655   0.844   2.579   0.632  0.7051 -1.8092  0.7817
   13THF     H8  656   0.909   2.693   0.506 -1.9111 -0.1332  0.3692
   14THF     C1  657   2.577   1.758   0.428 -0.2332  0.5158 -0.0057
   14THF     C2  658   2.511   1.758   0.290 -0.2521 -0.6382 -0.0106
   14THF     C3  659   2.505   1.907   0.246  0.4584  0.6386  0.2936
   14THF     O1  660   2.544   1.978   0.366  0.0992  0.6233  0.4341
   14THF     C4  661   2.640   1.897   0.437  0.0158 -0.6959 -0.3361
   14THF     H1  662   2.507   1.747   0.511 -0.3728  0.6378 -0.1077
   14THF     H2  663   2.636   1.665   0.428 -2.2404 -0.7949 -1.7061
   14THF     H3  664   2.413   1.709   0.293 -0.8081  0.2531 -2.2638
   14THF     H4  665   2.560   1.696   0.215  3.9359  0.6473  1.5265
   14THF     H5  666   2.574   1.934   0.165  1.0858  2.1385  1.2927
   14THF     H6  667   2.405   1.936   0.210 -0.5211 -3.1927 -0.2057
   14THF     H7  668   2.734   1.881   0.382 -0.3573 -0.5368 -1.0326
   14THF     H8  669   2.653   1.919   0.543 -1.6589  0.6134 -0.3944
   15THF     C1  670   3.194   2.874   1.385 -0.5412  0.2970 -0.7424
   15THF     C2  671   3.265   3.019   1.390  0.3603 -0.0041  0.2426
   15THF     C3  672   3.337   3.027   1.524 -0.0088 -0.4530  0.1698
   15THF     O1  673   3.299   2.908   1.595 -0.0999  0.2168 -0.1754
   15THF     C4  674   3.173   2.859   1.536  0.3791  0.7708 -0.1587
   15THF     H1  675   3.105   2.870   1.322 -0.5163 -1.8395 -0.6808
   15THF     H2  676   3.269   2.809   1.339 -0.4196 -0.1739  0.1051
   15THF     H3  677   3.197   3.104   1.375 -0.2714 -0.6450 -0.6051
   15THF     H4  678   3.337   3.025   1.307 -1.6733  0.5568 -1.5341
   15THF     H5  679   3.446   3.037   1.522 -0.1092  0.6978  0.1930
   15THF     H6  680   3.292   3.106   1.585 -1.3048 -1.8759  1.1052
   15THF     H7  681   3.141   2.759   1.569  4.1076  0.1124  1.6746
   15THF     H8  682   3.087   2.921   1.563 -1.3284 -1.3004 -0.6489
   16THF     C1  683   2.783   1.889   1.100 -1.0652 -0.4239  0.6251
   16THF     C2  684   2.717   1.745   1.124 -1.1943 -0.2773 -0.2744
   16THF     C3  685   2.678   1.692   0.986 -0.7010  0.0077  0.5816
   16THF     O1  686   2.695   1.807   0.897 -0.3711 -0.4127  0.3755
   16THF     C4  687   2.698   1.928   0.976 -0.5282  0.1329  0.1917
   16THF     H1  688   2.783   1.942   1.196  1.2593  0.2172  0.2930
   16THF     H2  689   2.890   1.891   1.081 -1.1101 -2.5419  0.0189
   16THF     H3  690   2.625   1.747   1.184 -2.1718 -1.3269 -1.7386
   16THF     H4  691   2.787   1.680   1.178 -1.0711  0.3685  0.3611
   16THF     H5  692   2.732   1.605   0.947 -0.0901  0.5593  0.1652
   16THF     H6  693   2.572   1.666   0.992 -1.3914  2.2869 -0.9447
   16THF     H7  694   2.752   2.006   0.921  1.8782  0.2010  2.5207
   16THF     H8  695   2.596   1.960   1.001 -0.4347  0.2996  0.3638
   17THF     C1  696   2.669   1.753   1.546 -0.0886  0.6683 -0.3983
   17THF     C2  697   2.533   1.717   1.474 -0.0980 -0.2016 -0.5013
   17THF     C3  698   2.487   1.859   1.429 -0.4752 -0.0981  0.2902
   17THF     O1  699   2.526   1.946   1.535  0.0140 -0.0146 -0.1643
   17THF     C4  700   2.666   1.914   1.548 -0.2639  0.6919  0.0778
   17THF     H1  701   2.677   1.706   1.644  0.1524  0.5057 -0.4937
   17THF     H2  702   2.752   1.710   1.487  1.1306  2.0387  0.2999
   17THF     H3  703   2.466   1.684   1.553  2.2961  0.3348  1.8136
   17THF     H4  704   2.516   1.637   1.400 -2.4323 -1.4247  1.3143
   17THF     H5  705   2.538   1.888   1.337  0.7059  1.5729  1.4450
   17THF     H6  706   2.378   1.861   1.415 -0.4898  0.5050  0.4779
   17THF     H7  707   2.725   1.952   1.464  0.0120 -0.8305 -0.4339
   17THF     H8  708   2.695   1.950   1.647 -0.1249  0.9907 -0.0730
   18THF     C1  709   2.151   2.661   1.479  0.7029  0.6568  0.6148
   18THF     C2  710   2.291   2.593   1.519 -0.1849 -0.1229 -0.0696
   18THF     C3  711   2.267   2.442   1.509 -0.2574  0.4129 -0.0559
   18THF     O1  712   2.136   2.432   1.441  0.0761  0.5378 -0.1175
   18THF     C4  713   2.114   2.562   1.373 -0.2801 -0.0185 -0.2501
   18THF     H1  714   2.080   2.678   1.561  0.4190  1.7439  0.1580
   18THF     H2  715   2.181   2.755   1.431  1.5311 -0.1773 -0.5466
   18THF     H3  716   2.330   2.635   1.612 -0.8524 -1.5900  0.8798
   18THF     H4  717   2.367   2.631   1.450  0.4054  1.0646  1.2003
   18THF     H5  718   2.346   2.396   1.448 -0.4036 -0.2619  0.2497
   18THF     H6  719   2.256   2.393   1.607 -1.1627 -1.4349 -1.0457
   18THF     H7  720   2.170   2.554   1.279 -0.3225 -1.4572 -0.1658
   18THF     H8  721   2.010   2.575   1.341 -0.1536  0.3869 -0.4890
   19THF     C1  722   2.247   1.638   3.774 -0.4958  0.2594 -0.5876
   19THF     C2  723   2.173   1.511   3.715 -0.1123 -0.4724 -0.1092
   19THF     C3  724   2.052   1.570   3.655 -0.5568  0.2792  0.0108
   19THF     O1  725   2.008   1.656   3.759 -0.5374 -0.1209 -0.4700
   19THF     C4  726   2.121   1.719   3.821  0.9967 -0.5966 -0.0603
   19THF     H1  727   2.314   1.625   3.860  0.7822  2.6277 -1.1845
   19THF     H2  728   2.313   1.696   3.708 -0.1042 -0.7874 -1.1412
   19THF     H3  729   2.138   1.443   3.794  1.7398 -2.2923 -0.8128
   19THF     H4  730   2.236   1.453   3.646  0.9872  1.7824 -1.0252
   19THF     H5  731   2.080   1.632   3.570  1.9063 -1.4661 -0.5181
   19THF     H6  732   1.975   1.498   3.625  2.1269 -3.2848  1.2916
   19THF     H7  733   2.129   1.826   3.798 -0.1508 -0.9328 -2.1207
   19THF     H8  734   2.112   1.700   3.929  2.9577  1.2014  0.4538
   20THF     C1  735   1.508   0.867   0.981  0.0877 -0.7584 -0.2497
   20THF     C2  736   1.510   0.949   1.113  0.0473 -0.1981 -0.4760
   20THF     C3  737   1.560   1.082   1.051 -0.7294 -0.0701 -0.3754
   20THF     O1  738   1.495   1.096   0.920 -0.0040  0.4650  0.3135
   20THF     C4  739   1.442   0.966   0.882 -0.1836 -0.5180  0.1029
   20THF     H1  740   1.608   0.831   0.955  0.3147 -0.1031 -0.2864
   20THF     H2  741   1.457   0.771   0.994 -2.2584  0.4296 -0.4347
   20THF     H3  742   1.566   0.899   1.193 -2.7530 -1.8866  0.5083
   20THF     H4  743   1.415   0.973   1.161  0.3860  0.7223 -0.2593
   20THF     H5  744   1.529   1.169   1.111  1.5063  0.6488 -0.1959
   20THF     H6  745   1.668   1.084   1.030 -0.2152  0.1422  2.1260
   20THF     H7  746   1.332   0.965   0.888 -0.2150  0.1040 -0.3719
   20THF     H8  747   1.473   0.945   0.779  2.3690 -0.7565  0.8837
   21THF     C1  748   1.982   3.081   0.534 -0.0910 -0.0159 -0.1413
   21THF     C2  749   1.857   3.029   0.613 -0.2484 -0.4920 -0.1044
   21THF     C3  750   1.815   3.164   0.672  0.2329 -0.1741  0.0536
   21THF     O1  751   1.937   3.235   0.717  0.4135 -0.1296  0.0371
   21THF     C4  752   2.047   3.183   0.641  0.1493 -0.3666  0.1373
   21THF     H1  753   2.051   3.002   0.503 -0.8614 -0.6400 -0.2868
   21THF     H2  754   1.953   3.130   0.441  0.0484  1.1053  0.3998
   21THF     H3  755   1.880   2.958   0.693 -1.2988 -1.4764 -0.6635
   21THF     H4  756   1.774   2.988   0.554  1.4531 -0.1563 -2.8323
   21THF     H5  757   1.775   3.228   0.592 -1.9372 -1.6692 -0.0818
   21THF     H6  758   1.740   3.156   0.751  0.1709 -1.3287 -0.1250
   21THF     H7  759   2.100   3.263   0.588  0.2082 -0.1001  0.5915
   21THF     H8  760   2.115   3.138   0.715  0.4175  1.2551  0.9104
   22THF     C1  761   2.538   3.359   0.616 -0.2145  0.1842  0.0991
   22THF     C2  762   2.539   3.471   0.507  0.1113  0.4221  0.6949
   22THF     C3  763   2.388   3.509   0.519 -0.5252 -0.4181 -0.2082
   22THF     O1  764   2.319   3.377   0.522  0.1266 -0.0073 -0.2651
   22THF     C4  765   2.408   3.281   0.576 -0.2833  0.2468  0.3954
   22THF     H1  766   2.632   3.303   0.617  0.9998  2.1055 -1.4829
   22THF     H2  767   2.532   3.398   0.718 -1.2649  1.0183 -0.2735
   22THF     H3  768   2.562   3.427   0.410  1.5162 -0.7195  1.5325
   22THF     H4  769   2.611   3.550   0.531  0.6548 -1.1270  4.5516
   22THF     H5  770   2.363   3.562   0.612 -1.8126 -0.1927 -0.6737
   22THF     H6  771   2.343   3.567   0.437 -1.5473  0.0304  0.6666
   22THF     H7  772   2.356   3.221   0.652 -2.1976 -0.3004 -1.3064
   22THF     H8  773   2.436   3.203   0.504 -2.4725 -1.2447  1.1151
   23THF     C1  774   0.648   1.336   3.540 -0.5341 -0.2011 -0.7860
   23THF     C2  775   0.721   1.231   3.625 -0.0368 -0.6772 -0.0307
   23THF     C3  776   0.862   1.297   3.658 -0.1045  0.6496  0.6488
   23THF     O1  777   0.815   1.426   3.704  0.6880 -0.5575  0.2033
   23THF     C4  778   0.723   1.476   3.598  0.0965  0.7326 -0.0922
   23THF     H1  779   0.664   1.322   3.433 -2.5849  3.1548 -1.6017
   23THF     H2  780   0.539   1.327   3.543 -0.4186 -1.2097  1.4301
   23THF     H3  781   0.737   1.148   3.556 -3.2730  0.4760 -2.2772
   23THF     H4  782   0.661   1.206   3.713  0.3032 -2.4760 -0.2971
   23THF     H5  783   0.915   1.249   3.741  0.7523  0.8410  0.2194
   23THF     H6  784   0.928   1.313   3.572 -1.3443  0.4913 -0.3650
   23THF     H7  785   0.647   1.540   3.644 -1.3744 -0.0091 -1.4298
   23THF     H8  786   0.777   1.536   3.523 -0.7162  1.0983 -0.3862
   24THF     C1  787   0.580   0.762   0.719  0.4827  0.2196 -0.7936
   24THF     C2  788   0.529   0.897   0.686  0.3012 -0.0699 -0.4838
   24THF     C3  789   0.542   0.890   0.528 -0.2483 -0.2777  0.2988
   24THF     O1  790   0.583   0.762   0.493  0.2316 -0.1387 -0.0831
   24THF     C4  791   0.662   0.717   0.597  0.0550  0.2468  0.0125
   24THF     H1  792   0.643   0.769   0.808 -1.8668  1.3414  0.8424
   24THF     H2  793   0.503   0.689   0.748  2.9060 -1.0624  2.8056
   24THF     H3  794   0.596   0.970   0.731  0.1618  1.4414 -2.6417
   24THF     H4  795   0.428   0.917   0.724 -0.6313 -3.1606 -1.1923
   24THF     H5  796   0.451   0.927   0.478 -0.8749  0.8416  2.2293
   24THF     H6  797   0.619   0.960   0.493 -0.2800 -0.6518 -0.5448
   24THF     H7  798   0.679   0.609   0.588 -2.0970 -0.3517  2.4901
   24THF     H8  799   0.749   0.783   0.589  1.5773 -1.3330  2.8960
   25THF     C1  800   0.828   2.066   3.677  0.0784  0.3477  0.8373
   25THF     C2  801   0.970   2.098   3.607 -0.2177 -0.0447 -0.4576
   25THF     C3  802   0.935   2.222   3.517  0.7547 -0.1151 -0.1727
   25THF     O1  803   0.792   2.222   3.508  0.4034  0.1527 -0.5649
   25THF     C4  804   0.740   2.184   3.635 -0.4006 -0.1652 -0.1036
   25THF     H1  805   0.783   1.976   3.635  1.1794 -0.5182  1.4962
   25THF     H2  806   0.831   2.053   3.786 -1.8578 -0.2193  0.8522
   25THF     H3  807   1.018   2.017   3.552  2.4686 -0.2572  2.1269
   25THF     H4  808   1.051   2.128   3.674 -0.7326  0.6215 -0.1239
   25THF     H5  809   0.973   2.311   3.570 -0.2998  0.3993 -0.2663
   25THF     H6  810   0.979   2.225   3.416 -0.8053 -1.2356 -0.8860
   25THF     H7  811   0.755   2.263   3.710  2.6102  1.4741 -2.3489
   25THF     H8  812   0.632   2.167   3.638 -0.5142  0.3292 -1.2633
   26THF     C1  813   0.841   1.553   1.546 -0.5849 -0.6464 -0.2480
   26THF     C2  814   0.687   1.554   1.522  0.3124 -0.3278 -0.0039
   26THF     C3  815   0.675   1.707   1.500 -0.8015 -0.0028  0.4127
   26THF     O1  816   0.789   1.747   1.427 -0.4552  0.0174  0.5897
   26THF     C4  817   0.901   1.658   1.452 -0.3797 -0.2190  0.2017
   26THF     H1  818   0.862   1.588   1.647 -1.9451  1.2043 -0.5704
   26THF     H2  819   0.893   1.459   1.525  1.9294  0.7171 -0.2106
   26THF     H3  820   0.624   1.539   1.611 -3.1560  2.5876 -1.8251
   26THF     H4  821   0.647   1.489   1.443 -0.6096  1.1126 -0.7411
   26THF     H5  822   0.581   1.730   1.449 -1.6249  0.5612  2.1509
   26THF     H6  823   0.680   1.768   1.591 -2.2036  1.1633 -0.2793
   26THF     H7  824   0.932   1.616   1.356 -1.4043 -0.1914 -0.1472
   26THF     H8  825   0.976   1.722   1.501 -1.0072  1.1296 -0.5754
   27THF     C1  826   2.704   0.982   1.540  0.0814 -0.6249  0.1336
   27THF     C2  827   2.841   0.912   1.519 -0.1566  0.5052 -0.3076
   27THF     C3  828   2.805   0.766   1.490 -0.5996 -0.2241 -0.5898
   27THF     O1  829   2.665   0.770   1.463  0.1929 -0.0187  0.0457
   27THF     C4  830   2.605   0.864   1.550 -0.6539 -0.2046 -0.4437
   27THF     H1  831   2.695   1.054   1.621 -1.2590  1.0877 -1.5132
   27THF     H2  832   2.678   1.033   1.447 -1.4525 -1.4347  0.1147
   27THF     H3  833   2.902   0.913   1.610  3.4960 -1.0059 -2.6146
   27THF     H4  834   2.904   0.949   1.437  1.2013  0.9485  0.9291
   27THF     H5  835   2.850   0.727   1.398 -0.2526 -0.9112 -0.1270
   27THF     H6  836   2.832   0.699   1.572 -0.3817  0.0390 -0.4443
   27THF     H7  837   2.507   0.901   1.519 -0.3037  0.3222 -0.9318
   27THF     H8  838   2.609   0.814   1.648 -2.1065  0.2715 -0.1232
   28THF     C1  839   0.701   2.135   1.557 -0.0449 -0.3628  0.7316
   28THF     C2  840   0.689   2.297   1.552  0.4846  0.2105 -0.2595
   28THF     C3  841   0.633   2.311   1.411  0.1837 -0.5531  0.1321
   28THF     O1  842   0.707   2.218   1.332 -0.1887  0.0779  0.1393
   28THF     C4  843   0.745   2.097   1.414 -0.3967  0.3653 -0.0298
   28THF     H1  844   0.775   2.099   1.629 -0.7463 -0.8674  1.2055
   28THF     H2  845   0.598   2.105   1.580  0.0223  0.2209  1.8556
   28THF     H3  846   0.787   2.345   1.553  1.9055 -2.5336 -0.9457
   28THF     H4  847   0.636   2.340   1.638 -0.5624  0.9197 -1.2466
   28THF     H5  848   0.525   2.300   1.395 -0.0879  0.3873  1.2998
   28THF     H6  849   0.660   2.408   1.367  0.6296 -1.1178 -0.8791
   28THF     H7  850   0.689   2.008   1.384 -0.6243  0.1617  0.9648
   28THF     H8  851   0.852   2.075   1.405 -0.0623  2.0743 -0.4941
   29THF     C1  852   2.782   2.267   1.523 -0.1540 -0.0937  0.0749
   29THF     C2  853   2.828   2.417   1.521  0.2357 -0.0663  0.2932
   29THF     C3  854   2.700   2.496   1.465  0.3140 -0.0086  0.1420
   29THF     O1  855   2.588   2.423   1.512 -0.7742  0.3544  0.0593
   29THF     C4  856   2.636   2.290   1.561 -0.0434  0.1013 -0.3411
   29THF     H1  857   2.784   2.228   1.421  1.4728 -1.1817  0.4969
   29THF     H2  858   2.849   2.212   1.590  0.3577 -0.9237 -1.1058
   29THF     H3  859   2.919   2.436   1.464  1.0005  0.6597  1.7393
   29THF     H4  860   2.848   2.447   1.625 -0.9479 -0.7065  0.7202
   29THF     H5  861   2.698   2.601   1.498 -0.6778 -0.1698  0.5906
   29THF     H6  862   2.702   2.499   1.355  3.4100 -0.0614  0.1474
   29THF     H7  863   2.642   2.306   1.669 -0.1681  1.0796 -0.4726
   29THF     H8  864   2.567   2.217   1.518 -0.3360  1.2189 -1.8068
   30THF     C1  865   1.311   0.018   0.428 -0.3806  0.5405  0.3166
   30THF     C2  866   1.443   0.082   0.495 -0.0115  0.7266 -0.4351
   30THF     C3  867   1.468  -0.023   0.607 -0.3086 -0.7296 -0.3248
   30THF     O1  868   1.336  -0.037   0.659  0.2313 -0.3165  0.5501
   30THF     C4  869   1.248  -0.060   0.548  0.3957 -0.2536 -0.5574
   30THF     H1  870   1.242   0.090   0.382 -0.8740  0.3207  0.7097
   30THF     H2  871   1.329  -0.058   0.350  0.2545  0.9641  0.0474
   30THF     H3  872   1.411   0.180   0.531 -0.2668  0.5415 -0.1664
   30THF     H4  873   1.527   0.090   0.424 -0.8407  0.7849 -1.4149
   30THF     H5  874   1.509  -0.121   0.582  1.0569 -1.0294  2.8462
   30THF     H6  875   1.531   0.017   0.688 -0.4406  0.8479 -0.9684
   30THF     H7  876   1.239  -0.169   0.535 -1.0031 -0.2922  0.6246
   30THF     H8  877   1.152  -0.017   0.577  1.2446  1.2685  0.0247
   31THF     C1  878   1.838   1.578   1.583  0.1050  0.3475 -0.3201
   31THF     C2  879   1.794   1.591   1.429  1.1729  0.0661 -0.2076
   31THF     C3  880   1.921   1.546   1.353  0.6840  0.3365  0.2456
   31THF     O1  881   1.999   1.478   1.448 -0.0022 -0.5644 -0.3018
   31THF     C4  882   1.986   1.551   1.570  0.1314  0.0851 -0.2068
   31THF     H1  883   1.819   1.677   1.626  1.7475  0.9233 -0.8770
   31THF     H2  884   1.779   1.505   1.639 -0.6348  1.7943  0.8529
   31THF     H3  885   1.765   1.692   1.397  0.7572  0.2422  0.7073
   31THF     H4  886   1.718   1.516   1.404  2.5980 -1.7711  0.8200
   31THF     H5  887   1.909   1.484   1.263  0.7490  0.8674 -0.1336
   31THF     H6  888   1.984   1.631   1.324  1.6474 -0.6355 -0.5552
   31THF     H7  889   2.022   1.491   1.654  0.2768  1.1483  0.5052
   31THF     H8  890   2.045   1.643   1.556  0.6788 -0.1979  0.2524
   32THF     C1  891   1.716   2.344   1.554  0.2849 -0.6382 -0.7415
   32THF     C2  892   1.572   2.397   1.523  0.5106  0.4624  0.6921
   32THF     C3  893   1.593   2.492   1.399 -0.5824  0.5843 -0.1176
   32THF     O1  894   1.723   2.556   1.430 -0.2199  0.1049  0.3578
   32THF     C4  895   1.806   2.464   1.506 -0.7633 -0.7064  0.0558
   32THF     H1  896   1.739   2.302   1.652 -3.4118 -1.9794 -0.3737
   32THF     H2  897   1.739   2.266   1.481  3.5634 -1.8156  1.4637
   32THF     H3  898   1.531   2.455   1.606  0.9221  0.5587  0.8278
   32THF     H4  899   1.493   2.322   1.514 -0.3927  1.5642 -0.8870
   32THF     H5  900   1.614   2.431   1.310 -0.0951 -0.1624  0.5052
   32THF     H6  901   1.515   2.568   1.383  1.8602  2.8858 -1.6154
   32THF     H7  902   1.888   2.435   1.440 -0.0426 -1.8956  1.4576
   32THF     H8  903   1.848   2.516   1.593 -0.6392 -2.8274  1.2865
   33THF     C1  904   0.266   2.047   1.395 -0.0684  0.2021 -0.0356
   33THF     C2  905   0.189   2.038   1.528 -0.6522 -0.4092  0.9615
   33THF     C3  906   0.179   1.887   1.545 -0.0938 -0.0482 -0.5719
   33THF     O1  907   0.313   1.838   1.504 -0.3725 -0.4186  0.0416
   33THF     C4  908   0.344   1.913   1.389  0.2534  0.0038 -0.6109
   33THF     H1  909   0.204   2.060   1.306  0.8037  0.9817 -0.5435
   33THF     H2  910   0.326   2.139   1.400  0.0270  0.2550 -1.7804
   33THF     H3  911   0.092   2.088   1.526  1.0658  3.0883 -0.4891
   33THF     H4  912   0.244   2.093   1.605 -0.4372  2.2748 -1.0414
   33THF     H5  913   0.145   1.855   1.644  0.0305 -0.3428 -0.6234
   33THF     H6  914   0.111   1.849   1.468 -1.2048  1.3734 -0.3128
   33THF     H7  915   0.453   1.919   1.390  0.4241 -2.3725 -1.9258
   33THF     H8  916   0.327   1.843   1.306  0.8384 -1.7781  0.7254
   34THF     C1  917   3.024   0.322   0.878 -0.3869 -0.2114  0.4601
   34THF     C2  918   2.903   0.267   0.815  0.3953 -0.0009  0.4090
   34THF     C3  919   2.807   0.234   0.939  0.3846 -0.4314 -0.1756
   34THF     O1  920   2.886   0.236   1.051 -0.5630 -0.2270  0.2468
   34THF     C4  921   3.024   0.231   1.006 -0.0596 -0.1089 -0.4884
   34THF     H1  922   3.115   0.317   0.816  0.6318  0.1937  1.9080
   34THF     H2  923   2.996   0.425   0.902 -0.1139 -0.2965  1.1395
   34THF     H3  924   2.926   0.168   0.774  1.0589 -0.2047  1.2448
   34THF     H4  925   2.855   0.332   0.741  2.5673  0.6698 -0.4332
   34THF     H5  926   2.729   0.311   0.941 -0.6526 -1.4505 -0.5101
   34THF     H6  927   2.768   0.133   0.922  0.6308 -0.7004  0.8263
   34THF     H7  928   3.090   0.267   1.086 -1.1346  0.5442  0.1132
   34THF     H8  929   3.050   0.129   0.976  2.2009 -0.4065  2.2622
   35THF     C1  930   3.240   2.673   3.692 -0.5800  0.8212  0.1638
   35THF     C2  931   3.210   2.751   3.814  0.7391 -0.1806 -0.0602
   35THF     C3  932   3.233   2.652   3.928  0.2056  0.9102  0.2080
   35THF     O1  933   3.347   2.587   3.878 -0.2315 -0.1009  0.1060
   35THF     C4  934   3.335   2.563   3.743  0.1701  0.7969  0.1320
   35THF     H1  935   3.152   2.622   3.650 -0.4832 -0.1293  1.0947
   35THF     H2  936   3.282   2.730   3.608  0.6653  1.4895  1.2322
   35THF     H3  937   3.114   2.802   3.805  0.3055 -1.2058 -1.3795
   35THF     H4  938   3.287   2.826   3.837  1.2658 -1.2400  1.6647
   35THF     H5  939   3.250   2.699   4.026 -2.9373 -0.4091  1.4732
   35THF     H6  940   3.153   2.576   3.930  0.1634  0.9028 -1.1138
   35THF     H7  941   3.433   2.553   3.696 -0.0526 -1.3171  0.0422
   35THF     H8  942   3.276   2.470   3.737 -1.2495  1.6747  0.2991
   36THF     C1  943   0.788   2.207   0.861  0.3088  0.3456  0.7534
   36THF     C2  944   0.835   2.089   0.770  0.4923  0.2426  0.4557
   36THF     C3  945   0.983   2.140   0.743  0.0313  0.3484 -0.8030
   36THF     O1  946   1.025   2.216   0.857  0.4254 -0.4629 -0.9640
   36THF     C4  947   0.914   2.229   0.943 -0.1083 -0.4073 -0.8543
   36THF     H1  948   0.763   2.300   0.810 -2.3658  0.1705  1.6607
   36THF     H2  949   0.699   2.180   0.920 -0.4746  0.4600 -0.3660
   36THF     H3  950   0.777   2.075   0.677  1.8021 -0.2001 -0.3042
   36THF     H4  951   0.838   1.993   0.822  1.0670 -0.2643 -0.4904
   36THF     H5  952   1.060   2.064   0.723  1.0778  2.1122 -3.7708
   36THF     H6  953   0.984   2.212   0.660 -0.3480  1.4968  0.1702
   36THF     H7  954   0.923   2.144   1.013  1.3673  0.2622 -0.2248
   36THF     H8  955   0.929   2.323   0.997  2.1753 -1.1898 -0.0703
   37THF     C1  956   1.710   1.646   0.290 -0.1666  0.5249 -0.5907
   37THF     C2  957   1.695   1.780   0.220 -0.6458 -0.0215  0.3360
   37THF     C3  958   1.608   1.853   0.319 -0.4339  0.0371  0.9061
   37THF     O1  959   1.672   1.824   0.444 -0.3670  0.2961  0.2404
   37THF     C4  960   1.704   1.690   0.441 -0.1037  0.2736 -0.2964
   37THF     H1  961   1.638   1.566   0.267  1.0852 -0.4147 -1.3511
   37THF     H2  962   1.809   1.603   0.273 -0.5110 -0.5583  0.0767
   37THF     H3  963   1.638   1.762   0.128  1.4026 -1.0822 -0.7846
   37THF     H4  964   1.787   1.838   0.206 -1.1399  0.5630 -0.5418
   37THF     H5  965   1.604   1.961   0.302 -0.0312  0.0703  1.0420
   37THF     H6  966   1.505   1.814   0.318  0.1981 -1.6980  0.2845
   37THF     H7  967   1.800   1.668   0.489  0.1484 -0.3861 -1.0889
   37THF     H8  968   1.627   1.630   0.491  0.7747 -1.2985 -0.7901
   38THF     C1  969   1.316   3.042   0.913 -0.1972 -0.3522 -0.1226
   38THF     C2  970   1.165   3.056   0.967 -0.2880 -0.0043 -0.2361
   38THF     C3  971   1.141   2.903   1.001 -0.6222  0.0749  0.5186
   38THF     O1  972   1.247   2.825   0.951 -0.3493  0.4236  0.1502
   38THF     C4  973   1.360   2.909   0.972  0.2852  0.2792 -0.4982
   38THF     H1  974   1.322   3.043   0.803  0.4454 -0.9563 -0.1011
   38THF     H2  975   1.382   3.126   0.935 -1.8857  0.5974  1.4044
   38THF     H3  976   1.097   3.100   0.894 -0.2441  1.8922  0.8230
   38THF     H4  977   1.162   3.114   1.060  0.0596 -0.9500  0.3825
   38THF     H5  978   1.120   2.872   1.105 -0.9692  2.1371  1.0858
   38THF     H6  979   1.051   2.869   0.948  0.6920 -2.1999 -0.3464
   38THF     H7  980   1.366   2.913   1.081 -0.0784 -1.7666 -0.3747
   38THF     H8  981   1.450   2.861   0.931 -0.3316 -0.0794 -1.4457
   39THF     C1  982   1.024   0.109   0.928 -0.1488  0.4112  0.2705
   39THF     C2  983   0.953   0.189   1.047  0.3793  0.9157  0.3579
   39THF     C3  984   1.068   0.215   1.131 -0.6279  0.0484 -0.0960
   39THF     O1  985   1.151   0.097   1.123 -0.8910 -0.1864 -0.3172
   39THF     C4  986   1.126   0.027   1.004 -0.2845 -0.2374 -0.2271
   39THF     H1  987   0.958   0.043   0.870  0.3992  0.5009 -0.4575
   39THF     H2  988   1.068   0.172   0.850 -0.7902  0.5536  0.0194
   39THF     H3  989   0.881   0.124   1.097 -0.5062  1.5487 -0.0889
   39THF     H4  990   0.902   0.278   1.008 -1.7928 -1.1940 -1.7455
   39THF     H5  991   1.120   0.304   1.094  1.0871 -1.3126 -1.0239
   39THF     H6  992   1.044   0.236   1.236  0.4638  0.6157  0.0488
   39THF     H7  993   1.224   0.000   0.963  1.1740  1.9311  1.7124
   39THF     H8  994   1.081  -0.069   1.030 -4.7783  1.6094 -0.7178
   40THF     C1  995   2.209   3.339   0.192 -0.1403  0.6524  0.2051
   40THF     C2  996   2.179   3.263   0.058 -0.2030  0.4870  0.1490
   40THF     C3  997   2.312   3.211   0.009  0.0579 -0.7029  0.7268
   40THF     O1  998   2.406   3.242   0.108 -0.0782 -0.1790  0.0581
   40THF     C4  999   2.364   3.364   0.176 -0.1115  0.0382  0.5731
   40THF     H1 1000   2.156   3.435   0.194 -3.3744 -1.0686  0.2729
   40THF     H2 1001   2.181   3.278   0.279  3.3257 -0.1880  0.7847
   40THF     H3 1002   2.147   3.338  -0.015 -0.5107 -0.2490 -0.4712
   40THF     H4 1003   2.099   3.190   0.073  0.2240 -0.1987 -0.8587
   40THF     H5 1004   2.310   3.103  -0.011 -0.6248 -0.4156 -0.8497
   40THF     H6 1005   2.349   3.261  -0.081 -0.1292 -2.7108 -0.4974
   40THF     H7 1006   2.416   3.365   0.272  0.0352  0.5670  0.4921
   40THF     H8 1007   2.396   3.443   0.107  2.8135 -1.2449  0.3712
   41THF     C1 1008   0.627   1.294   0.512  0.2117  0.4409  0.0736
   41THF     C2 1009   0.672   1.396   0.400 -0.3376  0.1939  0.2277
   41THF     C3 1010   0.558   1.380   0.302 -1.1832  0.2676  0.1851
   41THF     O1 1011   0.455   1.378   0.398 -0.1281 -0.0545 -0.5317
   41THF     C4 1012   0.480   1.269   0.490  0.3942 -0.5297 -0.0532
   41THF     H1 1013   0.687   1.202   0.512 -1.1684 -0.4987  1.8550
   41THF     H2 1014   0.645   1.335   0.612 -0.7681  1.0532  0.0009
   41THF     H3 1015   0.767   1.362   0.358 -0.2875  0.5982  0.0111
   41THF     H4 1016   0.673   1.497   0.444  3.7708 -1.0323  3.2058
   41THF     H5 1017   0.544   1.471   0.242 -2.1570  0.0465  0.0732
   41THF     H6 1018   0.549   1.286   0.247 -2.1554 -1.3375  2.9970
   41THF     H7 1019   0.424   1.284   0.583 -1.2509  0.8326 -1.2349
   41THF     H8 1020   0.443   1.181   0.436  1.1717 -2.2306  2.0841
   42THF     C1 1021   1.397   1.401   1.526  0.6608 -0.1750  0.2859
   42THF     C2 1022   1.290   1.446   1.428 -0.4615 -0.2879 -0.1548
   42THF     C3 1023   1.378   1.479   1.309 -0.6079  1.3009 -0.1494
   42THF     O1 1024   1.505   1.417   1.342  0.0595  0.0748  0.1907
   42THF     C4 1025   1.488   1.316   1.438  0.2269 -0.2148 -0.1335
   42THF     H1 1026   1.442   1.491   1.571 -0.0353  0.6830 -0.7094
   42THF     H2 1027   1.335   1.348   1.598  1.0992  1.3880  1.8623
   42THF     H3 1028   1.235   1.536   1.456 -0.6955  0.4161 -2.8116
   42THF     H4 1029   1.222   1.368   1.391 -1.2073 -0.1641  0.9251
   42THF     H5 1030   1.330   1.436   1.220  0.2501 -1.6450  0.7323
   42THF     H6 1031   1.400   1.584   1.288  0.2539  0.7113 -2.3580
   42THF     H7 1032   1.446   1.225   1.393 -3.2497  0.4649  1.5470
   42THF     H8 1033   1.586   1.294   1.484 -0.7763 -0.0743  2.1716
   43THF     C1 1034   1.434   2.781   0.341  0.0651  0.0451 -0.6230
   43THF     C2 1035   1.448   2.732   0.485  0.0635  0.1278  1.0555
   43THF     C3 1036   1.575   2.807   0.533 -1.1041  0.0409  0.1957
   43THF     O1 1037   1.654   2.778   0.413  0.6318  0.0243  0.0370
   43THF     C4 1038   1.582   2.809   0.293  0.4542  0.0116 -0.3400
   43THF     H1 1039   1.387   2.705   0.278 -0.6050 -1.1165  1.2185
   43THF     H2 1040   1.373   2.872   0.347 -0.5761 -0.4914  2.2230
   43THF     H3 1041   1.467   2.624   0.492  1.2449  0.0418 -2.7203
   43THF     H4 1042   1.361   2.757   0.547 -1.2865  0.3196 -0.8721
   43THF     H5 1043   1.557   2.915   0.538 -1.5709  0.0105 -0.7194
   43THF     H6 1044   1.616   2.765   0.626  0.3849  0.4288 -0.2781
   43THF     H7 1045   1.597   2.912   0.259  3.3027 -0.0641  0.5256
   43THF     H8 1046   1.606   2.747   0.206  1.8302  0.5291 -0.3438
   44THF     C1 1047   0.721   0.141   1.434  0.0581  0.2723  0.0908
   44THF     C2 1048   0.625   0.026   1.477 -0.5912  0.2087  0.3939
   44THF     C3 1049   0.489   0.095   1.489  0.4455  0.0018 -0.5064
   44THF     O1 1050   0.515   0.234   1.530 -0.1867  0.3224  0.1412
   44THF     C4 1051   0.656   0.263   1.519 -0.1487  0.2252  0.0371
   44THF     H1 1052   0.823   0.112   1.461 -0.3266  0.4079  1.7777
   44THF     H2 1053   0.712   0.156   1.326 -0.6441  0.5487  0.1816
   44THF     H3 1054   0.657  -0.018   1.572 -1.8750 -1.7327 -0.0296
   44THF     H4 1055   0.637  -0.054   1.404  2.6381  0.2466  0.8072
   44THF     H5 1056   0.432   0.097   1.395  2.0192 -1.1967 -1.5092
   44THF     H6 1057   0.432   0.044   1.567 -1.2649  3.0963  0.3673
   44THF     H7 1058   0.675   0.363   1.479 -2.7252  0.2147 -1.3148
   44THF     H8 1059   0.705   0.259   1.617  0.0895  1.6023 -0.0113
   45THF     C1 1060   3.229   0.520   1.538 -0.0435  0.6262 -1.0123
   45THF     C2 1061   3.202   0.372   1.495 -0.3724 -0.1977  0.1853
   45THF     C3 1062   3.121   0.406   1.361  0.8328 -0.3194 -0.3585
   45THF     O1 1063   3.089   0.543   1.363  0.4388 -0.1054 -0.3717
   45THF     C4 1064   3.206   0.609   1.416  0.1224 -0.3472 -0.0029
   45THF     H1 1065   3.154   0.540   1.616 -1.2776 -1.2251 -1.6749
   45THF     H2 1066   3.329   0.530   1.581 -0.2738  1.2488 -0.6155
   45THF     H3 1067   3.150   0.310   1.569 -0.2562  0.9209  1.2215
   45THF     H4 1068   3.296   0.324   1.466  0.4949  0.7692  1.3490
   45THF     H5 1069   3.180   0.378   1.274  0.1140 -0.6692 -0.7356
   45THF     H6 1070   3.030   0.345   1.352 -0.5429  1.4877  0.8444
   45THF     H7 1071   3.283   0.608   1.337 -0.6619  1.1632 -0.7935
   45THF     H8 1072   3.186   0.711   1.451  1.0654  0.1411 -0.8726
   46THF     C1 1073   0.975   3.117   3.333 -0.0172 -0.2149  0.0219
   46THF     C2 1074   0.874   3.068   3.434 -0.1792 -0.3222  0.6491
   46THF     C3 1075   0.929   3.117   3.564 -0.0216 -0.5076  0.0199
   46THF     O1 1076   1.015   3.221   3.530 -0.1637 -0.1193  0.3121
   46THF     C4 1077   1.000   3.255   3.398 -0.1451 -0.0055 -0.1158
   46THF     H1 1078   1.062   3.052   3.322 -0.5323 -0.8208 -0.5448
   46THF     H2 1079   0.927   3.127   3.236 -0.7583 -3.8958 -0.0777
   46THF     H3 1080   0.865   2.959   3.435 -0.4243 -0.3179 -0.5177
   46THF     H4 1081   0.778   3.113   3.409  0.7742  1.0818 -0.6042
   46THF     H5 1082   0.857   3.147   3.641  1.2172 -1.0558  1.4019
   46THF     H6 1083   0.995   3.040   3.606 -0.5005 -0.5363  0.7254
   46THF     H7 1084   0.910   3.317   3.389 -0.1497  0.0246  0.1300
   46THF     H8 1085   1.086   3.308   3.355 -0.0304  0.3190  0.5077
   47THF     C1 1086   1.724   0.206   1.538  0.3531 -0.0199 -0.6750
   47THF     C2 1087   1.874   0.262   1.517  0.2494 -0.1222 -0.5274
   47THF     C3 1088   1.940   0.150   1.437 -1.2570  0.4930  0.3328
   47THF     O1 1089   1.832   0.057   1.404  0.0240  0.0759 -0.2971
   47THF     C4 1090   1.749   0.055   1.521 -0.0364  0.2557  0.7284
   47THF     H1 1091   1.675   0.221   1.634  1.2275  1.0231 -0.3746
   47THF     H2 1092   1.650   0.232   1.461  0.1824 -1.4333 -0.9943
   47THF     H3 1093   1.919   0.271   1.616  1.3884  0.8328 -1.1190
   47THF     H4 1094   1.875   0.360   1.468  0.3074  1.2111  2.0434
   47THF     H5 1095   1.987   0.186   1.345  1.3689 -0.8293  1.1092
   47THF     H6 1096   2.013   0.089   1.492 -3.9790 -1.2725  2.1923
   47THF     H7 1097   1.651   0.009   1.505  0.8357 -1.9183  1.3748
   47THF     H8 1098   1.796  -0.000   1.604  1.9166 -0.6042 -0.8851
   48THF     C1 1099   1.019   0.006   2.613  0.3917 -0.7635 -0.0559
   48THF     C2 1100   0.885   0.072   2.638  0.3018 -0.1417  0.4511
   48THF     C3 1101   0.882   0.093   2.790  0.4761 -0.5233  0.5516
   48THF     O1 1102   1.022   0.090   2.821 -0.0175  0.4671  0.2144
   48THF     C4 1103   1.109   0.083   2.710  0.0986 -0.1733 -0.4510
   48THF     H1 1104   1.011  -0.100   2.643 -0.2137 -0.6356  0.2341
   48THF     H2 1105   1.057   0.012   2.511 -2.9569 -0.0330 -1.3260
   48THF     H3 1106   0.813  -0.004   2.605  0.9248 -0.5503  0.0035
   48THF     H4 1107   0.869   0.171   2.593 -0.7441  0.0503  1.2454
   48THF     H5 1108   0.838   0.191   2.812 -0.0024 -0.8015  0.8386
   48THF     H6 1109   0.831   0.012   2.844 -1.2670  1.9697  2.7766
   48THF     H7 1110   1.114   0.185   2.670  0.3348 -0.2713 -0.6698
   48THF     H8 1111   1.208   0.049   2.741 -0.2504 -0.8825 -0.1166
   49THF     C1 1112   0.468   1.860   0.465  0.7185 -0.1912  0.3883
   49THF     C2 1113   0.398   1.867   0.327 -0.8822 -0.4869  0.7235
   49THF     C3 1114   0.492   1.790   0.222 -0.2080 -0.0167  0.5248
   49THF     O1 1115   0.597   1.741   0.308 -0.4996 -0.1543 -0.7447
   49THF     C4 1116   0.550   1.731   0.441  0.4053 -0.7775 -0.5724
   49THF     H1 1117   0.538   1.940   0.493  0.8196 -0.4415  0.8543
   49THF     H2 1118   0.402   1.865   0.552  1.0894  0.8439  0.6278
   49THF     H3 1119   0.376   1.969   0.296 -0.2129 -0.5150  0.1486
   49THF     H4 1120   0.299   1.820   0.327 -1.3567  0.4709 -1.5034
   49THF     H5 1121   0.430   1.712   0.176 -1.4735  1.3812 -0.1902
   49THF     H6 1122   0.539   1.858   0.150  0.6458  0.2836  1.3529
   49THF     H7 1123   0.486   1.642   0.448 -1.3059  0.3792 -1.0497
   49THF     H8 1124   0.633   1.713   0.510 -0.5664 -3.7817 -0.1169
   50THF     C1 1125   2.490   0.494   0.840 -0.4648 -0.0114  0.2860
   50THF     C2 1126   2.415   0.372   0.760  0.5760  0.4264 -0.2887
   50THF     C3 1127   2.405   0.425   0.610  0.2361 -0.3216 -0.7426
   50THF     O1 1128   2.476   0.554   0.618 -0.7537  0.2554 -0.0131
   50THF     C4 1129   2.573   0.552   0.724  0.0988  0.2543 -0.1648
   50THF     H1 1130   2.410   0.554   0.884 -1.1839 -0.7760  0.0611
   50THF     H2 1131   2.564   0.456   0.910 -2.7739 -1.5965  1.9532
   50THF     H3 1132   2.318   0.353   0.808  0.5856  1.7827  0.2986
   50THF     H4 1133   2.479   0.283   0.759  0.6213  0.4520  0.0509
   50THF     H5 1134   2.452   0.361   0.534  1.2239  1.6910 -1.8582
   50THF     H6 1135   2.300   0.442   0.582  0.5328  1.4587 -0.8225
   50THF     H7 1136   2.661   0.493   0.696 -0.2976 -0.9004  0.9544
   50THF     H8 1137   2.603   0.655   0.745  0.9531  0.4033 -2.0319
   51THF     C1 1138   0.517   1.792   0.852  1.0022 -0.0690  0.1002
   51THF     C2 1139   0.635   1.706   0.901 -0.6299 -0.1806 -0.0696
   51THF     C3 1140   0.605   1.710   1.057 -0.3180 -0.7138  0.3457
   51THF     O1 1141   0.517   1.825   1.078  0.6908  0.1834  0.3607
   51THF     C4 1142   0.515   1.901   0.956  0.2173  0.0510  0.3990
   51THF     H1 1143   0.518   1.825   0.748 -0.1053 -0.4821 -0.0488
   51THF     H2 1144   0.427   1.732   0.865  1.0671 -0.4616 -1.1734
   51THF     H3 1145   0.731   1.756   0.889 -0.4723 -0.6274 -0.7315
   51THF     H4 1146   0.651   1.609   0.852  3.1174  0.9206 -1.2119
   51THF     H5 1147   0.563   1.616   1.095  0.0237 -1.3518 -0.8290
   51THF     H6 1148   0.694   1.740   1.115  0.6015 -2.5226 -0.0847
   51THF     H7 1149   0.425   1.964   0.947  1.4618  2.2306  2.5778
   51THF     H8 1150   0.603   1.966   0.952  0.4265 -0.0983  2.0444
   52THF     C1 1151   1.183   1.045   1.383 -0.1435 -0.7643 -0.3564
   52THF     C2 1152   1.156   1.103   1.527  0.7252  0.5483  0.1602
   52THF     C3 1153   1.023   1.184   1.511 -0.6224  0.2527  0.0851
   52THF     O1 1154   1.011   1.219   1.371  0.6394 -0.1995 -0.8425
   52THF     C4 1155   1.072   1.109   1.300 -0.3397 -0.4964  0.6399
   52THF     H1 1156   1.285   1.070   1.353 -0.2754  0.1562 -0.0638
   52THF     H2 1157   1.184   0.937   1.399 -1.6988 -0.8342 -0.6813
   52THF     H3 1158   1.230   1.162   1.583  0.1131  0.5773  0.9391
   52THF     H4 1159   1.133   1.029   1.604 -0.4724  1.0253  0.2710
   52THF     H5 1160   0.945   1.111   1.535 -0.6668  0.4275  0.4637
   52THF     H6 1161   1.020   1.273   1.574  2.7498  1.7872 -1.8091
   52THF     H7 1162   0.989   1.038   1.290 -0.8929  0.1591  0.5396
   52THF     H8 1163   1.101   1.135   1.197  0.8401 -3.9648  0.0212
   53THF     C1 1164   1.235   0.168   1.516  1.3212  0.1093  0.9264
   53THF     C2 1165   1.164   0.033   1.483 -0.0642 -0.3316 -0.2835
   53THF     C3 1166   1.272  -0.065   1.466 -0.0600  0.6863  0.0095
   53THF     O1 1167   1.378  -0.019   1.550 -0.4054 -0.3991 -0.3446
   53THF     C4 1168   1.383   0.123   1.533 -0.2479 -0.0775 -0.0102
   53THF     H1 1169   1.220   0.232   1.429  1.7872  1.1655  1.6223
   53THF     H2 1170   1.181   0.220   1.596  0.1691  0.7935 -0.2913
   53THF     H3 1171   1.099   0.035   1.395 -1.7141 -0.1615  0.9287
   53THF     H4 1172   1.097   0.006   1.566  1.2615 -1.8931  0.3246
   53THF     H5 1173   1.248  -0.165   1.505  1.2945 -0.0372 -0.9761
   53THF     H6 1174   1.315  -0.072   1.365  0.1194 -1.0633  0.1985
   53THF     H7 1175   1.426   0.169   1.622 -1.4376  0.4652  0.2866
   53THF     H8 1176   1.432   0.146   1.438 -2.4081  0.6374 -0.9918
   54THF     C1 1177   0.043   0.283   0.862 -0.1524 -0.0402  0.6747
   54THF     C2 1178  -0.007   0.426   0.888  0.5486  0.4863  0.3130
   54THF     C3 1179  -0.051   0.419   1.040 -0.3959 -0.0773  0.5882
   54THF     O1 1180  -0.063   0.276   1.069 -0.0733 -0.4617 -0.3644
   54THF     C4 1181   0.045   0.218   1.002 -0.1782 -0.3025 -0.3335
   54THF     H1 1182  -0.024   0.237   0.789  1.5623 -2.4443  0.5363
   54THF     H2 1183   0.145   0.283   0.821 -1.5177  2.2292 -2.9198
   54THF     H3 1184  -0.081   0.443   0.810  0.9683  1.2217  0.0774
   54THF     H4 1185   0.078   0.490   0.863  2.0584 -2.1458 -1.5177
   54THF     H5 1186   0.031   0.455   1.103 -0.7298 -1.0392  1.5769
   54THF     H6 1187  -0.140   0.473   1.073 -1.1548 -0.9072 -0.0411
   54THF     H7 1188   0.142   0.244   1.046 -0.8360  1.0498  0.3440
   54THF     H8 1189   0.029   0.110   0.993  2.3426 -0.6752 -0.6645
   55THF     C1 1190   0.236   1.465   0.167  0.3375 -0.2052  0.0242
   55THF     C2 1191   0.216   1.508   0.016 -0.1380 -0.2058 -0.4744
   55THF     C3 1192   0.071   1.559   0.012 -0.5114  0.1579  0.7824
   55THF     O1 1193   0.023   1.552   0.148 -0.0855  0.1089 -0.2978
   55THF     C4 1194   0.087   1.450   0.212  0.6963  0.1859 -0.4652
   55THF     H1 1195   0.286   1.369   0.184  0.2465  0.1474  2.5905
   55THF     H2 1196   0.285   1.537   0.233  0.9600  1.1752 -1.9243
   55THF     H3 1197   0.234   1.434  -0.063  0.6977  0.5523 -1.0053
   55THF     H4 1198   0.289   1.586  -0.009 -0.9288  0.2494 -1.4115
   55THF     H5 1199   0.068   1.662  -0.028  0.0714 -0.3947 -0.6836
   55THF     H6 1200   0.023   1.492  -0.060  1.0840  1.2536 -1.3489
   55THF     H7 1201   0.068   1.448   0.320 -1.2086 -0.3849 -0.7914
   55THF     H8 1202   0.039   1.355   0.183  2.6036 -0.5389 -1.3263
   56THF     C1 1203   1.513   0.573   3.559 -0.0266 -0.2266  0.6752
   56THF     C2 1204   1.617   0.683   3.611 -0.5506 -0.3913  0.0127
   56THF     C3 1205   1.585   0.803   3.525  0.4637 -0.2251 -0.1619
   56THF     O1 1206   1.503   0.757   3.412 -0.5366  0.3548  0.9188
   56THF     C4 1207   1.492   0.617   3.410  0.3008 -0.6725  0.2966
   56THF     H1 1208   1.550   0.471   3.575 -1.7737 -1.0778 -0.6127
   56THF     H2 1209   1.422   0.601   3.613  0.4004  2.4288  0.0772
   56THF     H3 1210   1.716   0.638   3.594 -1.3112 -1.8666 -0.6546
   56THF     H4 1211   1.604   0.709   3.716  0.1138  1.2859 -0.3067
   56THF     H5 1212   1.522   0.874   3.580  1.4054 -0.2202  0.9272
   56THF     H6 1213   1.676   0.856   3.496 -1.1497  1.4815 -2.3134
   56THF     H7 1214   1.394   0.592   3.368  1.8138 -1.4256 -2.9709
   56THF     H8 1215   1.569   0.583   3.339 -1.4386 -2.1395 -0.9112
   57THF     C1 1216   0.074   1.178   3.348 -0.8240  0.8187 -0.6436
   57THF     C2 1217  -0.016   1.295   3.323  0.3195 -0.3895  0.4167
   57THF     C3 1218  -0.019   1.369   3.460  0.5786 -0.4505 -0.8806
   57THF     O1 1219  -0.032   1.260   3.552 -0.1027 -0.2312  0.0221
   57THF     C4 1220   0.024   1.134   3.490 -0.3011 -0.9424  0.5008
   57THF     H1 1221   0.059   1.089   3.286  2.2799  0.4447 -0.9385
   57THF     H2 1222   0.178   1.210   3.344 -1.0140  1.3842 -1.0506
   57THF     H3 1223  -0.115   1.249   3.309  0.5353  0.1255 -3.0993
   57THF     H4 1224   0.005   1.355   3.235 -1.8380 -0.0443  0.1182
   57THF     H5 1225   0.071   1.426   3.486 -0.7612  0.1025  2.9161
   57THF     H6 1226  -0.106   1.436   3.459  0.3151 -0.7974 -1.2100
   57THF     H7 1227   0.104   1.100   3.557  0.7340  1.5604  0.6042
   57THF     H8 1228  -0.058   1.062   3.487 -0.2808 -0.9239 -0.3865
   58THF     C1 1229   3.269   1.144   0.469  0.3038 -0.5347  0.1766
   58THF     C2 1230   3.420   1.114   0.470 -0.9979  0.1526  0.1547
   58THF     C3 1231   3.427   1.034   0.603  0.2511 -0.2288 -0.0478
   58THF     O1 1232   3.309   0.960   0.603 -0.2729 -0.3494 -0.3059
   58THF     C4 1233   3.204   1.042   0.561  0.5775 -0.4635  0.8993
   58THF     H1 1234   3.255   1.239   0.521 -3.3636 -0.8616 -0.1146
   58THF     H2 1235   3.213   1.131   0.377  0.2076 -0.8870  0.2840
   58THF     H3 1236   3.479   1.205   0.483 -0.3585 -0.4428  1.4725
   58THF     H4 1237   3.467   1.051   0.393 -1.1234 -0.6140  0.7030
   58THF     H5 1238   3.517   0.975   0.622  0.4092 -0.0867 -0.3520
   58THF     H6 1239   3.407   1.101   0.687 -0.2146 -0.1041 -0.2546
   58THF     H7 1240   3.144   0.974   0.499  0.5930  1.9438 -1.8620
   58THF     H8 1241   3.144   1.084   0.642  1.1990 -0.0325  1.1364
   59THF     C1 1242   0.570   2.203   0.326 -0.2051  0.7512 -0.4333
   59THF     C2 1243   0.670   2.223   0.445  0.4719 -0.2642  0.2566
   59THF     C3 1244   0.806   2.214   0.374 -0.2117  0.6338  0.0836
   59THF     O1 1245   0.777   2.170   0.236  0.3962  0.2239  0.1594
   59THF     C4 1246   0.649   2.107   0.241  0.5445 -0.3407 -0.1950
   59THF     H1 1247   0.479   2.154   0.364 -0.3173 -0.0045 -1.6642
   59THF     H2 1248   0.539   2.291   0.270 -1.1254  1.0530  0.5121
   59THF     H3 1249   0.669   2.144   0.521  0.5103  0.7613  1.3458
   59THF     H4 1250   0.657   2.321   0.493 -4.2867 -0.8052  0.3840
   59THF     H5 1251   0.854   2.312   0.381  1.0255 -0.0311  0.9928
   59THF     H6 1252   0.872   2.149   0.433 -0.5331  0.4099  0.2041
   59THF     H7 1253   0.608   2.091   0.140  1.8204  1.1373 -0.9889
   59THF     H8 1254   0.647   2.012   0.295  1.2656 -0.2456  0.0016
   60THF     C1 1255   0.415   0.413   1.064  0.0291 -0.4589  0.3197
   60THF     C2 1256   0.433   0.330   0.942  0.0564 -0.1127  0.4707
   60THF     C3 1257   0.577   0.341   0.894  0.6497 -0.7836  1.0234
   60THF     O1 1258   0.649   0.389   1.014 -0.1829  0.4825 -0.3503
   60THF     C4 1259   0.554   0.382   1.122  0.2893  0.7451  0.2987
   60THF     H1 1260   0.401   0.521   1.051 -2.0094 -0.5218  1.7453
   60THF     H2 1261   0.332   0.382   1.129  0.6783 -2.1633  0.3643
   60THF     H3 1262   0.360   0.356   0.864 -1.0862 -0.2908  1.4738
   60THF     H4 1263   0.412   0.224   0.958  1.2628 -0.4965 -0.3835
   60THF     H5 1264   0.610   0.244   0.855 -2.3415 -0.6209 -2.1926
   60THF     H6 1265   0.587   0.410   0.809  1.1725 -1.4211  0.5656
   60THF     H7 1266   0.560   0.279   1.160 -0.3880  0.6581  0.1720
   60THF     H8 1267   0.593   0.440   1.206  0.7330 -1.9238  1.9902
   61THF     C1 1268   2.271   1.003   0.611  0.6761 -0.0030  0.4204
   61THF     C2 1269   2.232   0.860   0.660 -0.1660  0.9187 -0.0772
   61THF     C3 1270   2.251   0.766   0.532  0.2172 -0.1429  0.5160
   61THF     O1 1271   2.209   0.862   0.429 -0.2443  0.4757 -0.0063
   61THF     C4 1272   2.280   0.992   0.452 -0.4632 -0.0871 -0.1969
   61THF     H1 1273   2.201   1.077   0.650 -0.2196 -0.6958  0.1432
   61THF     H2 1274   2.367   1.033   0.654  0.4529  3.8651 -1.5339
   61THF     H3 1275   2.126   0.863   0.689 -0.0273  0.7009  0.4688
   61THF     H4 1276   2.290   0.824   0.746 -1.3472 -1.5711 -0.2809
   61THF     H5 1277   2.356   0.736   0.519  0.5841  1.5505 -0.5016
   61THF     H6 1278   2.191   0.674   0.523  0.8000 -0.4623 -0.2008
   61THF     H7 1279   2.384   0.988   0.415 -0.1442 -2.1417  0.8394
   61THF     H8 1280   2.235   1.072   0.392 -1.6124  0.9423  1.9785
   62THF     C1 1281   1.050   0.584   1.550  0.4329  0.0431 -0.3085
   62THF     C2 1282   0.936   0.485   1.506 -0.5274 -0.1826 -0.8837
   62THF     C3 1283   0.810   0.579   1.547 -0.2599 -0.7359  0.3492
   62THF     O1 1284   0.856   0.711   1.527  0.4131 -0.6268 -0.2333
   62THF     C4 1285   0.999   0.720   1.490  0.4187  0.2645  0.6637
   62THF     H1 1286   1.050   0.575   1.659  0.8517  1.2407 -0.2024
   62THF     H2 1287   1.144   0.540   1.514 -0.0022 -1.4622  0.3421
   62THF     H3 1288   0.935   0.388   1.557  1.4492 -0.3572 -1.1688
   62THF     H4 1289   0.933   0.466   1.398 -2.1103  1.0236 -1.0792
   62THF     H5 1290   0.715   0.566   1.494  0.5665 -0.5504 -1.2008
   62THF     H6 1291   0.792   0.559   1.654 -1.2181 -0.5158  0.2336
   62THF     H7 1292   1.016   0.726   1.381  0.3401  0.8465  0.6818
   62THF     H8 1293   1.047   0.801   1.545  1.3803 -0.1266  0.4169
   63THF     C1 1294   0.155   1.900   1.028 -0.2636  0.6345 -0.6907
   63THF     C2 1295   0.026   1.967   0.972 -0.1358 -1.2516  0.1768
   63THF     C3 1296  -0.071   1.844   0.971  0.5258  0.5489  0.3310
   63THF     O1 1297  -0.002   1.735   1.033  0.4885 -0.2200 -0.5365
   63THF     C4 1298   0.088   1.794   1.120  0.0254  1.0288 -0.9221
   63THF     H1 1299   0.216   1.842   0.958 -0.6876 -0.2905 -0.2916
   63THF     H2 1300   0.228   1.963   1.081  0.8338 -0.9693 -0.2765
   63THF     H3 1301   0.041   2.024   0.880  1.9004  1.4559  2.1155
   63THF     H4 1302  -0.011   2.034   1.050 -1.5113 -2.2061  0.3608
   63THF     H5 1303  -0.164   1.869   1.022  0.9172  2.7494 -0.0097
   63THF     H6 1304  -0.095   1.817   0.868 -1.6608 -0.0267  0.9634
   63THF     H7 1305   0.028   1.829   1.205  0.0966 -1.4523  0.1717
   63THF     H8 1306   0.155   1.710   1.140 -1.3232 -0.2071 -1.4695
   64THF     C1 1307   2.549   0.511   3.563  0.4253  0.4137 -0.0855
   64THF     C2 1308   2.680   0.528   3.490  0.1875  0.1604  0.0289
   64THF     C3 1309   2.648   0.639   3.387 -0.0326 -0.3354  0.0268
   64THF     O1 1310   2.508   0.650   3.374  0.0880 -0.1456  0.1915
   64THF     C4 1311   2.457   0.623   3.506  0.1148 -0.0847  0.0406
   64THF     H1 1312   2.502   0.412   3.557  1.0488  0.2313 -2.2206
   64THF     H2 1313   2.566   0.528   3.670 -0.7274  1.6245 -0.0748
   64THF     H3 1314   2.713   0.443   3.430 -0.4327  0.2573 -0.4529
   64THF     H4 1315   2.758   0.552   3.563  1.9574 -1.0898 -1.4144
   64THF     H5 1316   2.700   0.731   3.416 -0.3675 -0.2028  0.2091
   64THF     H6 1317   2.695   0.615   3.291 -0.2906  0.9481 -0.4175
   64THF     H7 1318   2.465   0.716   3.563  0.2557 -0.6550  0.9464
   64THF     H8 1319   2.351   0.594   3.496  0.0721  0.0867 -0.0164
   65THF     C1 1320   1.101   3.123   0.209 -0.7956  0.6752  0.3932
   65THF     C2 1321   1.164   3.139   0.055 -0.3553  0.2003 -0.4090
   65THF     C3 1322   1.112   3.281   0.020 -0.9706 -0.4177  0.0018
   65THF     O1 1323   1.123   3.351   0.146 -0.1385  0.3227  0.5574
   65THF     C4 1324   1.063   3.272   0.242 -0.1405 -0.1847 -0.2322
   65THF     H1 1325   1.013   3.058   0.216 -0.8966  0.7206 -0.4078
   65THF     H2 1326   1.165   3.067   0.278 -1.1361 -1.8183 -1.2419
   65THF     H3 1327   1.128   3.054  -0.004  1.1538  0.1872 -1.3316
   65THF     H4 1328   1.273   3.141   0.045 -0.4006  0.0533 -0.9678
   65THF     H5 1329   1.175   3.329  -0.057  0.0504 -0.0127  1.0675
   65THF     H6 1330   1.007   3.276  -0.010 -1.4567  1.4776  1.3216
   65THF     H7 1331   1.096   3.299   0.343 -0.0399 -0.5656 -0.1606
   65THF     H8 1332   0.954   3.279   0.236 -0.1387  2.2778  1.9629
   66THF     C1 1333   3.079   1.591   0.610  0.4479  0.0902 -0.0337
   66THF     C2 1334   2.933   1.609   0.556  0.6667  0.3222 -0.1894
   66THF     C3 1335   2.858   1.491   0.618  0.7702  0.3781 -0.4865
   66THF     O1 1336   2.956   1.404   0.682 -0.4024  0.4594  0.0962
   66THF     C4 1337   3.064   1.493   0.720 -0.4970  0.2318  0.7382
   66THF     H1 1338   3.138   1.547   0.528  0.3414  0.9048 -0.5545
   66THF     H2 1339   3.121   1.684   0.650  0.3981  0.8524 -1.6992
   66THF     H3 1340   2.936   1.609   0.447 -0.3395 -1.9495 -0.2514
   66THF     H4 1341   2.891   1.704   0.590  1.2302  0.0032  1.4351
   66THF     H5 1342   2.793   1.527   0.698  0.4022  0.4002 -0.7953
   66THF     H6 1343   2.794   1.435   0.549 -0.4647  1.7918 -0.5301
   66THF     H7 1344   3.045   1.537   0.819 -0.3501  1.6384  0.1433
   66THF     H8 1345   3.151   1.426   0.726 -0.0094  0.8290  0.3025
   67THF     C1 1346   2.858   3.365   1.424 -0.8929 -0.4141  0.6464
   67THF     C2 1347   2.936   3.327   1.550  0.5584  0.0799  0.3238
   67THF     C3 1348   3.043   3.430   1.562  0.2210  0.1547  0.5287
   67THF     O1 1349   3.086   3.444   1.429  0.3716 -0.2152  0.5772
   67THF     C4 1350   2.971   3.431   1.340 -0.2311 -0.2703 -0.4358
   67THF     H1 1351   2.802   3.286   1.371 -1.3508  0.7944 -0.7087
   67THF     H2 1352   2.785   3.444   1.447 -0.5848  0.0965 -0.1112
   67THF     H3 1353   2.969   3.224   1.532 -1.2235 -0.2234 -1.4546
   67THF     H4 1354   2.878   3.325   1.643  0.4811  0.6923  0.2888
   67THF     H5 1355   3.016   3.530   1.597  0.1392  1.2793 -2.5956
   67THF     H6 1356   3.123   3.386   1.623 -0.4475 -0.5399  0.9100
   67THF     H7 1357   2.940   3.530   1.303  1.2537  0.3914  0.0142
   67THF     H8 1358   3.000   3.360   1.261  1.8395  1.1327 -1.0082
   68THF     C1 1359   2.441   1.027   3.266 -0.5766  0.2346 -0.0102
   68THF     C2 1360   2.342   1.016   3.380 -0.0796 -0.6147  0.2165
   68THF     C3 1361   2.426   1.066   3.500 -0.0851 -0.2208 -0.6908
   68THF     O1 1362   2.551   1.114   3.447 -0.3543 -0.6164  0.3587
   68THF     C4 1363   2.576   1.051   3.324 -0.4024  0.7960 -0.3203
   68THF     H1 1364   2.436   0.932   3.213 -2.4380 -0.0106  0.5902
   68THF     H2 1365   2.421   1.101   3.187 -0.5397  0.7797  0.4830
   68THF     H3 1366   2.323   0.910   3.400 -0.4364 -0.9430 -1.8067
   68THF     H4 1367   2.249   1.071   3.366  0.6144  0.8402  1.0896
   68THF     H5 1368   2.375   1.148   3.552  1.2704  1.0055 -1.2919
   68THF     H6 1369   2.439   0.978   3.565  0.9972 -1.3346 -2.3903
   68THF     H7 1370   2.632   1.108   3.249  4.1085 -1.2481  1.3363
   68THF     H8 1371   2.625   0.955   3.345 -0.3478  0.3819 -2.2134
   69THF     C1 1372   2.212   1.520   0.578 -0.5421  0.3084  0.1222
   69THF     C2 1373   2.104   1.529   0.471 -0.6378 -0.1190 -0.5081
   69THF     C3 1374   2.174   1.468   0.351  0.0506 -0.1940  0.4077
   69THF     O1 1375   2.249   1.357   0.403  0.4271  0.4098  0.3140
   69THF     C4 1376   2.265   1.376   0.545 -0.5628 -0.2681  0.2685
   69THF     H1 1377   2.291   1.596   0.582  0.5957 -0.9410  2.3096
   69THF     H2 1378   2.165   1.537   0.675 -0.3932 -0.4551  0.3358
   69THF     H3 1379   2.071   1.632   0.451 -1.4097 -0.7163 -2.3302
   69THF     H4 1380   2.012   1.481   0.505 -0.0603  0.2298  1.6759
   69THF     H5 1381   2.097   1.433   0.281  1.6926  2.5284 -2.9129
   69THF     H6 1382   2.245   1.533   0.297  0.8298  0.4588  2.1689
   69THF     H7 1383   2.207   1.302   0.602 -0.4065 -0.4078  0.2475
   69THF     H8 1384   2.370   1.365   0.572 -0.6467  0.7842  1.0691
   70THF     C1 1385   1.801   0.776   0.668 -0.2847 -0.0193  0.2157
   70THF     C2 1386   1.864   0.787   0.523  0.1638 -0.2988 -0.0070
   70THF     C3 1387   1.877   0.634   0.488 -0.2760  0.2819  0.0642
   70THF     O1 1388   1.740   0.596   0.511  0.0550 -0.2205  0.0070
   70THF     C4 1389   1.715   0.641   0.647  0.2887  0.3211 -0.7872
   70THF     H1 1390   1.885   0.780   0.738 -0.8422 -1.3030  0.9606
   70THF     H2 1391   1.739   0.864   0.687 -1.1862 -0.2766 -1.4625
   70THF     H3 1392   1.955   0.848   0.527 -0.9216  1.5194 -1.7609
   70THF     H4 1393   1.793   0.836   0.455  1.1833  1.6506  0.3047
   70THF     H5 1394   1.919   0.619   0.388  1.7100 -0.1195  0.9385
   70THF     H6 1395   1.932   0.576   0.564 -1.6510 -0.2187  0.7023
   70THF     H7 1396   1.606   0.650   0.660  0.2600  0.3392 -1.0454
   70THF     H8 1397   1.743   0.569   0.726 -0.0270 -0.0584 -1.0202
   71THF     C1 1398   2.241   1.590   1.098  0.0036  0.5034  0.6298
   71THF     C2 1399   2.236   1.751   1.096 -0.2641 -0.0511  0.0079
   71THF     C3 1400   2.253   1.777   0.948  0.3093  0.5263  0.9208
   71THF     O1 1401   2.161   1.686   0.892 -0.1908 -0.1804  0.0016
   71THF     C4 1402   2.203   1.563   0.953  0.0368  0.7387 -0.0545
   71THF     H1 1403   2.340   1.552   1.128 -0.5565 -2.6091 -1.2585
   71THF     H2 1404   2.185   1.554   1.185 -1.4781  0.2317 -0.4238
   71THF     H3 1405   2.314   1.789   1.164  1.0799 -0.7714 -1.1000
   71THF     H4 1406   2.138   1.784   1.132 -0.7958 -0.5906 -0.9572
   71THF     H5 1407   2.221   1.880   0.928 -4.0304 -0.6309  1.4031
   71THF     H6 1408   2.358   1.762   0.922 -0.0506 -1.2415  0.4594
   71THF     H7 1409   2.129   1.485   0.932  0.6425 -0.3129  1.6335
   71THF     H8 1410   2.289   1.524   0.898 -2.4705 -0.6328 -3.1870
   72THF     C1 1411   0.434   1.620   3.208 -0.5101  0.2265 -0.8640
   72THF     C2 1412   0.465   1.521   3.319  0.1641  0.2181 -0.0391
   72THF     C3 1413   0.323   1.487   3.367 -0.0186 -0.2568 -0.0945
   72THF     O1 1414   0.242   1.500   3.255  0.3707 -0.0904  0.3280
   72THF     C4 1415   0.320   1.546   3.140  0.5581 -0.5114 -0.4943
   72THF     H1 1416   0.396   1.714   3.248  0.4920 -0.5252  2.0193
   72THF     H2 1417   0.512   1.627   3.132 -0.8926 -0.3290 -1.3147
   72THF     H3 1418   0.516   1.565   3.406  0.1931  2.6652 -1.2415
   72THF     H4 1419   0.523   1.431   3.298  0.7427  0.5902 -0.0504
   72THF     H5 1420   0.316   1.384   3.405  0.2522 -0.8742 -1.6406
   72THF     H6 1421   0.311   1.559   3.448  0.2732 -0.3484  0.0338
   72THF     H7 1422   0.360   1.460   3.087 -2.0408 -1.1720 -1.4623
   72THF     H8 1423   0.268   1.612   3.069  3.2794  0.4375 -1.6435
   73THF     C1 1424   2.816   2.874   1.387 -0.2375  0.5384  0.2792
   73THF     C2 1425   2.756   2.908   1.530 -0.2393 -0.2327  1.3338
   73THF     C3 1426   2.603   2.910   1.502 -0.3465 -0.5410 -0.1257
   73THF     O1 1427   2.598   2.819   1.393  0.2401  0.1290 -0.2439
   73THF     C4 1428   2.688   2.857   1.296  0.3167 -0.2199  0.1375
   73THF     H1 1429   2.884   2.956   1.363 -1.1458  1.2653  0.1437
   73THF     H2 1430   2.883   2.788   1.385  1.8848  2.1550 -0.1665
   73THF     H3 1431   2.786   3.008   1.564 -3.0456  0.6066  1.4254
   73THF     H4 1432   2.791   2.828   1.596 -0.7064 -1.5684  0.0079
   73THF     H5 1433   2.549   2.873   1.590 -1.9248 -0.1867 -0.9193
   73THF     H6 1434   2.566   3.008   1.466  1.5033  0.1166 -0.2664
   73THF     H7 1435   2.698   2.787   1.212  0.6685 -2.1340  1.7675
   73THF     H8 1436   2.653   2.953   1.255 -2.1001 -0.2326  2.0577
   74THF     C1 1437   1.881   2.223   0.898  0.1289 -0.0230  0.3122
   74THF     C2 1438   1.809   2.185   1.026  0.6844  0.3877  0.5355
   74THF     C3 1439   1.822   2.307   1.118 -0.0788  0.1302 -0.0297
   74THF     O1 1440   1.959   2.343   1.092 -0.3322  0.2737  0.2100
   74THF     C4 1441   1.976   2.337   0.948  0.1351  0.4361  0.1510
   74THF     H1 1442   1.936   2.143   0.848  1.0627  0.7127  0.1469
   74THF     H2 1443   1.807   2.273   0.834  0.2770  1.2863  1.1354
   74THF     H3 1444   1.852   2.091   1.065 -3.4353 -1.6819  0.3255
   74THF     H4 1445   1.703   2.171   1.006  0.8729  1.8668 -1.5600
   74THF     H5 1446   1.761   2.388   1.077  2.3285  1.0925 -1.7995
   74THF     H6 1447   1.795   2.304   1.224 -0.3031  3.0776  0.0339
   74THF     H7 1448   1.929   2.428   0.909  2.3204  0.8419 -1.6369
   74THF     H8 1449   2.072   2.315   0.901  0.2904 -0.5012  0.8846
   75THF     C1 1450   2.006   1.946   0.475  0.0152 -0.3185 -0.5213
   75THF     C2 1451   2.115   2.050   0.421 -0.4802 -0.3727 -0.7035
   75THF     C3 1452   2.142   2.134   0.545 -0.3154  0.3231  0.2079
   75THF     O1 1453   2.117   2.052   0.658  0.0184  0.0400  0.2256
   75THF     C4 1454   2.069   1.922   0.616 -0.3747 -0.0622 -0.1751
   75THF     H1 1455   1.903   1.977   0.491  0.6194  0.3651  2.2315
   75THF     H2 1456   1.991   1.854   0.416 -1.4615  0.5585 -1.5508
   75THF     H3 1457   2.070   2.096   0.333  2.3769  1.4295 -1.2693
   75THF     H4 1458   2.210   2.011   0.383  0.5945 -0.3843  1.8734
   75THF     H5 1459   2.244   2.174   0.551 -0.7116  1.0303  2.5260
   75THF     H6 1460   2.070   2.215   0.558 -2.3722 -1.4283  0.0006
   75THF     H7 1461   2.150   1.848   0.623  0.0055  0.2403 -1.2672
   75THF     H8 1462   1.992   1.896   0.689  1.0241  1.5898  1.9725
   76THF     C1 1463   0.893   0.714   0.267 -0.3849 -0.5697  1.1481
   76THF     C2 1464   0.760   0.685   0.196  0.2593 -0.4006 -0.8210
   76THF     C3 1465   0.776   0.767   0.065 -0.6762 -0.6139  0.2310
   76THF     O1 1466   0.910   0.746   0.028  0.4501  0.1058 -0.2320
   76THF     C4 1467   0.990   0.754   0.154 -0.0137  0.3939 -0.1952
   76THF     H1 1468   0.907   0.799   0.334 -0.0578 -0.6787  1.2167
   76THF     H2 1469   0.918   0.621   0.319  1.8439  0.1840  1.4900
   76THF     H3 1470   0.680   0.719   0.262 -0.0241 -1.3183 -0.6877
   76THF     H4 1471   0.754   0.581   0.162  0.2082 -0.7503  0.2526
   76THF     H5 1472   0.721   0.731  -0.023 -0.2407 -0.5439 -0.0675
   76THF     H6 1473   0.768   0.875   0.080 -3.9624 -0.7836  0.0696
   76THF     H7 1474   1.070   0.681   0.141 -0.0053  0.6213 -1.5136
   76THF     H8 1475   1.022   0.859   0.166 -0.0238  0.5684 -1.6708
   77THF     C1 1476   0.222   0.133   0.326 -0.4536 -0.3882 -0.0529
   77THF     C2 1477   0.162   0.194   0.194  0.6533 -0.2584  0.2748
   77THF     C3 1478   0.294   0.194   0.109 -0.1122 -0.1929  0.2746
   77THF     O1 1479   0.386   0.248   0.200  0.2060 -0.3292  0.3233
   77THF     C4 1480   0.373   0.174   0.319 -0.7546 -0.1870  0.2694
   77THF     H1 1481   0.172   0.185   0.408 -0.1542  0.7799 -0.6012
   77THF     H2 1482   0.207   0.025   0.331 -0.7751 -0.3665 -0.4846
   77THF     H3 1483   0.126   0.296   0.207 -1.1519 -0.8826  0.3809
   77THF     H4 1484   0.085   0.134   0.144  0.9028 -0.3762  0.0272
   77THF     H5 1485   0.321   0.098   0.065 -0.0728 -0.1051  0.1051
   77THF     H6 1486   0.284   0.270   0.030  2.2677 -1.1243 -0.9820
   77THF     H7 1487   0.441   0.088   0.321 -0.3377  0.1790  1.8409
   77THF     H8 1488   0.389   0.239   0.406 -0.7475  2.2834 -1.5373
   78THF     C1 1489   2.251   1.268   1.454 -0.8165 -0.4115 -0.4517
   78THF     C2 1490   2.355   1.153   1.435 -0.2567 -0.5526  0.0529
   78THF     C3 1491   2.476   1.235   1.370  0.7328 -0.5827  0.3542
   78THF     O1 1492   2.447   1.376   1.383 -0.0384 -0.0107  0.0660
   78THF     C4 1493   2.345   1.390   1.479 -0.3690  0.0294 -0.0371
   78THF     H1 1494   2.190   1.287   1.365 -1.0340  1.1820  0.0261
   78THF     H2 1495   2.187   1.251   1.541  0.0987  1.3327  0.5858
   78THF     H3 1496   2.311   1.079   1.367 -0.9355 -0.0047 -0.1127
   78THF     H4 1497   2.376   1.112   1.535 -0.9164  0.9369  0.8138
   78THF     H5 1498   2.563   1.202   1.427  2.2113 -0.8117 -1.9646
   78THF     H6 1499   2.483   1.202   1.265 -0.0299 -0.0942  0.1459
   78THF     H7 1500   2.378   1.398   1.583 -1.0873 -0.0030  0.1969
   78THF     H8 1501   2.283   1.478   1.458 -1.1812 -0.2163  1.2722
   79THF     C1 1502   2.785   3.230   0.132  0.2806  0.3281 -0.2405
   79THF     C2 1503   2.875   3.101   0.137 -0.4899 -0.1411  0.4312
   79THF     C3 1504   2.903   3.082  -0.013  0.5980 -0.3238 -0.3941
   79THF     O1 1505   2.923   3.220  -0.057  0.6676 -0.0464  0.2446
   79THF     C4 1506   2.872   3.316   0.042 -0.5202  0.1509 -0.6343
   79THF     H1 1507   2.686   3.204   0.092  0.4116  1.3483 -1.2263
   79THF     H2 1508   2.782   3.269   0.235  1.3594 -3.9966  1.5524
   79THF     H3 1509   2.820   3.011   0.166 -0.7431 -1.2015 -3.1283
   79THF     H4 1510   2.969   3.112   0.194 -0.2380  1.6994 -0.3169
   79THF     H5 1511   2.992   3.024  -0.040  0.7615 -1.1510  1.7839
   79THF     H6 1512   2.808   3.036  -0.041  0.1918 -1.5698  2.8202
   79THF     H7 1513   2.954   3.365   0.096 -0.6568 -1.0069  0.6513
   79THF     H8 1514   2.809   3.392  -0.007 -2.2386 -1.0110 -0.2994
   80THF     C1 1515   1.826   2.679   1.142  0.0718 -0.0217 -0.1563
   80THF     C2 1516   1.716   2.762   1.067 -0.3314  0.0223  0.1881
   80THF     C3 1517   1.806   2.874   0.992  0.0017 -0.3689  0.2875
   80THF     O1 1518   1.941   2.827   0.997  0.0702  0.3963  0.0114
   80THF     C4 1519   1.947   2.692   1.046 -0.0472 -0.4602  0.0063
   80THF     H1 1520   1.837   2.719   1.243  0.4503  0.6133 -0.4469
   80THF     H2 1521   1.784   2.579   1.159  0.8246 -0.5031 -1.0988
   80THF     H3 1522   1.636   2.800   1.132 -0.9665 -1.5520  0.3660
   80THF     H4 1523   1.676   2.698   0.988  1.5050 -1.1147  0.1447
   80THF     H5 1524   1.772   2.885   0.888  3.7898 -2.2650 -1.2697
   80THF     H6 1525   1.804   2.974   1.037  0.8573 -1.0841  1.9223
   80THF     H7 1526   1.938   2.622   0.961 -0.8550  0.4289 -0.6525
   80THF     H8 1527   2.042   2.671   1.096 -0.3919 -0.1281  0.8058
   81THF     C1 1528   1.351   2.341   0.964  0.0509  0.1417  0.2954
   81THF     C2 1529   1.391   2.490   0.987  0.4512  0.6076  0.1600
   81THF     C3 1530   1.304   2.531   1.109  0.3208 -0.0987  0.2911
   81THF     O1 1531   1.318   2.420   1.191 -0.1136 -0.0636 -0.6152
   81THF     C4 1532   1.287   2.309   1.106  0.6316  0.3053 -0.0496
   81THF     H1 1533   1.286   2.329   0.877 -0.3663  0.1453  0.6070
   81THF     H2 1534   1.444   2.284   0.951  0.6394  0.6891  1.8978
   81THF     H3 1535   1.374   2.556   0.902  1.1221  1.0541  0.3641
   81THF     H4 1536   1.498   2.498   1.009  0.8821  0.1297 -1.6660
   81THF     H5 1537   1.355   2.620   1.148  0.3831 -0.4628  1.0479
   81THF     H6 1538   1.202   2.560   1.085 -0.4885 -2.5018  0.6560
   81THF     H7 1539   1.330   2.219   1.152 -1.6583  0.4829  2.5717
   81THF     H8 1540   1.179   2.313   1.089  0.5694  1.8453  0.5804
   82THF     C1 1541   2.534   2.815   0.451  0.2024 -0.8028  0.5970
   82THF     C2 1542   2.570   2.938   0.353 -0.3370  0.1103  0.0859
   82THF     C3 1543   2.552   2.871   0.207  0.1287 -0.3108  0.0453
   82THF     O1 1544   2.514   2.738   0.235  0.4136  0.2075  0.1226
   82THF     C4 1545   2.447   2.729   0.365  0.2593 -0.2524 -0.0039
   82THF     H1 1546   2.621   2.756   0.481 -0.2337 -1.3272  0.8315
   82THF     H2 1547   2.476   2.850   0.537 -2.3296 -0.0147 -1.3521
   82THF     H3 1548   2.671   2.980   0.362 -0.4626  0.1558  1.5123
   82THF     H4 1549   2.503   3.022   0.372  0.1817  0.1963  1.6544
   82THF     H5 1550   2.474   2.927   0.155  0.6975  1.0349  0.6106
   82THF     H6 1551   2.634   2.869   0.133  0.0462  0.9428 -0.0834
   82THF     H7 1552   2.347   2.773   0.355 -0.1130 -0.6793  1.7840
   82THF     H8 1553   2.435   2.623   0.391  1.1971 -0.7158 -1.4060
   83THF     C1 1554   0.010   3.426   1.334  0.2093 -0.5097 -0.3610
   83THF     C2 1555   0.048   3.496   1.472  0.1151 -0.2737 -0.5668
   83THF     C3 1556   0.128   3.384   1.536  0.9289  0.2934 -0.1310
   83THF     O1 1557   0.211   3.335   1.438  0.1273  0.1276 -0.6055
   83THF     C4 1558   0.134   3.335   1.313  0.5010 -0.0461  0.5070
   83THF     H1 1559  -0.083   3.372   1.356 -0.0296  0.3683  0.8834
   83THF     H2 1560   0.008   3.498   1.251  0.6547  2.0382  1.7431
   83THF     H3 1561  -0.033   3.533   1.536  1.1340 -1.0475  1.2137
   83THF     H4 1562   0.116   3.579   1.450  0.4034 -0.5700 -0.8018
   83THF     H5 1563   0.179   3.407   1.630 -2.6231  0.8187  1.7850
   83THF     H6 1564   0.064   3.301   1.568  1.0781  0.8632  1.7318
   83THF     H7 1565   0.203   3.365   1.233  0.6588  0.0221  0.6672
   83THF     H8 1566   0.110   3.231   1.286  2.6980 -0.4924  0.1542
   84THF     C1 1567   1.282   1.252   0.185  0.2565  0.0131 -0.3750
   84THF     C2 1568   1.158   1.268   0.285 -0.7702 -0.9863  0.0299
   84THF     C3 1569   1.044   1.229   0.192  0.6271 -0.4105 -0.1708
   84THF     O1 1570   1.105   1.140   0.103  0.1111 -0.5351  0.3000
   84THF     C4 1571   1.220   1.203   0.055  0.1605  0.0482  0.0097
   84THF     H1 1572   1.338   1.341   0.155  1.1979 -0.1083  0.9762
   84THF     H2 1573   1.363   1.190   0.224  1.8647  1.4201 -1.4209
   84THF     H3 1574   1.148   1.367   0.330  1.6219 -1.7197  2.3217
   84THF     H4 1575   1.168   1.193   0.364  0.1245 -0.3294  0.5513
   84THF     H5 1576   0.973   1.180   0.260  1.2059 -1.2386 -0.1593
   84THF     H6 1577   1.013   1.312   0.127  2.2725  0.4419  0.1063
   84THF     H7 1578   1.295   1.135   0.011  0.0820  0.9281 -1.4992
   84THF     H8 1579   1.194   1.285  -0.012 -0.2692 -0.3384 -0.2992
   85THF     C1 1580   2.871   2.899   0.586 -0.6409 -0.4878  0.1220
   85THF     C2 1581   2.947   3.022   0.520 -0.7304  0.3779 -0.8715
   85THF     C3 1582   2.846   3.144   0.537 -0.3035  0.1908 -0.4427
   85THF     O1 1583   2.728   3.083   0.584  0.1791 -0.0570 -0.1710
   85THF     C4 1584   2.757   2.965   0.666 -0.8770 -0.4922  0.4520
   85THF     H1 1585   2.822   2.839   0.509 -1.6799  1.6532 -0.9294
   85THF     H2 1586   2.939   2.841   0.649  0.2501  1.8677  1.4143
   85THF     H3 1587   2.961   3.007   0.412 -1.2642 -1.2127 -0.7358
   85THF     H4 1588   3.042   3.030   0.574 -1.6195 -1.1279  0.9961
   85THF     H5 1589   2.884   3.207   0.619  0.4917 -0.1847 -0.5138
   85THF     H6 1590   2.832   3.203   0.446 -1.4698  1.3337  0.4524
   85THF     H7 1591   2.802   2.999   0.761 -1.2429  2.5093 -0.3749
   85THF     H8 1592   2.670   2.900   0.674 -3.2049  1.4092 -6.2143
   86THF     C1 1593   2.840   2.607   0.926 -0.5132 -0.4451  0.1398
   86THF     C2 1594   2.933   2.729   0.907 -0.1316  0.3052 -0.4064
   86THF     C3 1595   3.024   2.711   1.034  0.1510 -0.0289  0.2596
   86THF     O1 1596   2.942   2.662   1.134  0.2825  0.2774 -0.2351
   86THF     C4 1597   2.854   2.574   1.073  0.1117 -0.1881  0.2363
   86THF     H1 1598   2.733   2.622   0.906 -1.1505 -4.0688  0.4132
   86THF     H2 1599   2.868   2.525   0.859  1.2351 -0.1667  0.5070
   86THF     H3 1600   2.890   2.830   0.918  0.6510  0.5860  0.0998
   86THF     H4 1601   2.989   2.721   0.813  0.0613 -3.1636 -0.0559
   86THF     H5 1602   3.107   2.639   1.028  1.3988  1.2427  1.7901
   86THF     H6 1603   3.065   2.809   1.061  0.7400 -0.1433 -0.2067
   86THF     H7 1604   2.890   2.471   1.086  2.0581 -0.0998 -3.6652
   86THF     H8 1605   2.756   2.575   1.122 -0.1203  0.9090 -0.2201
   87THF     C1 1606   0.974   1.652   0.507  0.4343  0.2968  0.2337
   87THF     C2 1607   1.051   1.763   0.430  0.4536 -0.2329 -0.4105
   87THF     C3 1608   1.090   1.852   0.547 -0.1215 -0.4856  0.1577
   87THF     O1 1609   1.023   1.819   0.669 -0.2664 -1.0585 -0.0490
   87THF     C4 1610   0.912   1.743   0.623  0.2571 -0.6432 -0.3700
   87THF     H1 1611   0.903   1.597   0.445 -2.0265  0.6751  2.6275
   87THF     H2 1612   1.049   1.582   0.546 -0.3649 -2.2837 -2.6722
   87THF     H3 1613   0.975   1.818   0.373  0.5153  0.0449 -0.2251
   87THF     H4 1614   1.129   1.728   0.362  0.8999 -1.0571  0.5116
   87THF     H5 1615   1.197   1.843   0.571  0.0814  2.1540  0.4032
   87THF     H6 1616   1.077   1.961   0.536  1.4966 -0.0968  1.7643
   87THF     H7 1617   0.860   1.695   0.707 -2.2582  3.2860  0.4240
   87THF     H8 1618   0.830   1.807   0.589  0.3903 -0.4036 -0.2451
   88THF     C1 1619   2.914   1.283   1.496  0.7801  0.2181  0.4611
   88THF     C2 1620   2.867   1.271   1.350  0.6672  0.4745  0.3441
   88THF     C3 1621   2.871   1.427   1.312  0.1909  0.3494 -0.7132
   88THF     O1 1622   2.973   1.485   1.393  0.1876  0.4424 -0.3078
   88THF     C4 1623   3.034   1.381   1.484  0.1063  0.1184 -0.0711
   88THF     H1 1624   2.834   1.324   1.559  1.0964  2.0393 -0.3229
   88THF     H2 1625   2.943   1.184   1.534  1.4170 -0.2048 -1.0899
   88THF     H3 1626   2.766   1.228   1.338  0.1929  2.0132 -1.4189
   88THF     H4 1627   2.932   1.205   1.291  1.3112 -0.8097  2.4399
   88THF     H5 1628   2.904   1.441   1.208  0.0143 -1.5375 -1.0479
   88THF     H6 1629   2.773   1.472   1.330 -0.6963 -0.9809 -2.0374
   88THF     H7 1630   3.122   1.335   1.438  0.5120  0.2819  0.5318
   88THF     H8 1631   3.071   1.420   1.580  0.9062  2.1994 -1.1938
   89THF     C1 1632   1.954   3.147   1.529  0.5831  0.7559  0.8944
   89THF     C2 1633   1.985   2.996   1.518  0.0119  0.1224 -0.2697
   89THF     C3 1634   2.023   2.984   1.364 -0.7437 -0.0865 -0.6962
   89THF     O1 1635   1.936   3.086   1.303  0.3659 -0.0082 -0.6059
   89THF     C4 1636   1.945   3.199   1.391  0.2607  0.8039  0.4468
   89THF     H1 1637   1.861   3.168   1.582  1.0337  1.8152  1.2798
   89THF     H2 1638   2.037   3.197   1.580  2.8513 -1.0520 -0.9389
   89THF     H3 1639   1.918   2.917   1.552  1.4309 -0.2868  1.6721
   89THF     H4 1640   2.064   2.978   1.592  0.8441  0.0485 -1.1510
   89THF     H5 1641   2.127   3.018   1.350 -0.2491 -1.2349  0.0804
   89THF     H6 1642   2.002   2.889   1.314 -1.8036 -0.1424 -0.1450
   89THF     H7 1643   2.037   3.254   1.370  0.2061  1.2040  1.2602
   89THF     H8 1644   1.863   3.269   1.371 -0.7312 -0.1622  1.0733
   90THF     C1 1645   1.105   1.746   0.033 -0.9020  0.2581  0.3363
   90THF     C2 1646   1.258   1.796   0.048 -0.5787  0.1306  1.0496
   90THF     C3 1647   1.320   1.656   0.067 -0.3324  0.2753 -0.2737
   90THF     O1 1648   1.235   1.602   0.155  0.1982  0.3945  0.0217
   90THF     C4 1649   1.103   1.613   0.110  0.1257 -0.1362  0.0552
   90THF     H1 1650   1.033   1.818   0.073 -1.4757 -0.1389  0.0307
   90THF     H2 1651   1.075   1.723  -0.070 -0.3134 -0.1203  0.2472
   90THF     H3 1652   1.292   1.854   0.134  1.7066 -0.6789  0.7071
   90THF     H4 1653   1.300   1.852  -0.037 -0.6288  1.6341  2.0020
   90THF     H5 1654   1.319   1.597  -0.026  0.2282  0.1050 -0.1715
   90THF     H6 1655   1.418   1.672   0.113 -1.9796  2.4776  2.5329
   90THF     H7 1656   1.079   1.525   0.049 -2.4559 -0.9175  2.1088
   90THF     H8 1657   1.036   1.620   0.196  1.1402 -1.0283  0.9181
   91THF     C1 1658   1.577   3.207   0.155  0.4218  0.1174  0.3077
   91THF     C2 1659   1.736   3.183   0.178 -0.2896  0.0857 -0.3831
   91THF     C3 1660   1.800   3.301   0.098  0.6383  0.2752  0.1622
   91THF     O1 1661   1.690   3.389   0.062  0.3263 -0.5020  0.2741
   91THF     C4 1662   1.586   3.356   0.143  0.0217  0.6743  0.6944
   91THF     H1 1663   1.532   3.160   0.067 -1.9548  1.5550  0.7309
   91THF     H2 1664   1.515   3.177   0.240 -1.7848  1.1057 -0.9286
   91THF     H3 1665   1.774   3.087   0.142 -0.2771  0.5451 -1.6135
   91THF     H4 1666   1.761   3.193   0.284  0.5731  0.1575 -0.5827
   91THF     H5 1667   1.877   3.357   0.153  2.0138 -2.2978  0.9487
   91THF     H6 1668   1.852   3.272   0.006 -1.0913 -1.3922 -0.3533
   91THF     H7 1669   1.602   3.394   0.244 -3.0402  3.4824  0.1914
   91THF     H8 1670   1.493   3.405   0.111 -0.2340 -0.7641 -0.8103
   92THF     C1 1671   2.465   3.429   1.471 -0.6505  0.7663 -0.2166
   92THF     C2 1672   2.486   3.273   1.486  0.4754  0.4093 -0.5163
   92THF     C3 1673   2.344   3.220   1.524  0.2874  0.6960  0.0805
   92THF     O1 1674   2.255   3.319   1.474 -0.3535 -0.0063  0.1319
   92THF     C4 1675   2.314   3.447   1.507 -0.0885 -0.1515 -0.1213
   92THF     H1 1676   2.529   3.477   1.546  0.2058  0.3859 -0.6947
   92THF     H2 1677   2.504   3.479   1.382  1.9239 -0.5050  0.1443
   92THF     H3 1678   2.559   3.249   1.565  1.1794 -0.3507 -1.3810
   92THF     H4 1679   2.502   3.223   1.390  1.7812 -0.8118  0.3009
   92THF     H5 1680   2.334   3.116   1.493  0.4098  0.9341 -0.7847
   92THF     H6 1681   2.331   3.222   1.633 -0.1062 -0.0315  0.0489
   92THF     H7 1682   2.274   3.523   1.438  1.1167 -0.0224 -0.6862
   92THF     H8 1683   2.303   3.472   1.614 -1.9019  2.0542 -0.7737
   93THF     C1 1684   3.045   1.462   0.228  1.2065 -0.9034  0.2654
   93THF     C2 1685   3.124   1.342   0.167  0.5104  0.0271 -0.6266
   93THF     C3 1686   3.066   1.355   0.019 -0.2078 -0.5259 -0.1058
   93THF     O1 1687   3.056   1.498  -0.005 -0.3097 -0.5106 -0.6720
   93THF     C4 1688   3.085   1.572   0.114  0.5819  0.1398  0.9526
   93THF     H1 1689   2.937   1.446   0.229  0.9683  0.6131 -0.5569
   93THF     H2 1690   3.091   1.489   0.324 -0.0190  1.8564  0.1096
   93THF     H3 1691   3.088   1.249   0.212  1.3560 -0.1696 -0.3500
   93THF     H4 1692   3.232   1.354   0.181  0.6206 -0.1415 -1.3384
   93THF     H5 1693   3.127   1.311  -0.061  0.6401  0.7162 -0.1432
   93THF     H6 1694   2.966   1.308   0.022 -0.0420 -0.9125 -0.5695
   93THF     H7 1695   3.192   1.592   0.108  0.7541 -0.5720  1.6396
   93THF     H8 1696   3.033   1.669   0.108  0.6445  0.2083  1.4883
   94THF     C1 1697   1.858   2.333   0.247 -0.2268  0.2590 -0.1758
   94THF     C2 1698   1.931   2.417   0.141  0.2646  0.0883  0.1618
   94THF     C3 1699   1.909   2.326   0.016 -0.3827  0.5679 -0.2651
   94THF     O1 1700   1.887   2.192   0.065 -0.1323 -0.6570 -0.3305
   94THF     C4 1701   1.813   2.201   0.178  0.6536 -0.5493 -0.3737
   94THF     H1 1702   1.919   2.310   0.334  0.6016  2.0266 -0.2696
   94THF     H2 1703   1.780   2.392   0.297  1.6290  1.8019  0.9618
   94THF     H3 1704   2.036   2.436   0.166  0.2654 -1.8140  1.6925
   94THF     H4 1705   1.880   2.513   0.123  0.9111 -0.1424 -3.1974
   94THF     H5 1706   1.820   2.349  -0.044 -2.4865 -1.7535  1.8142
   94THF     H6 1707   1.998   2.321  -0.047 -1.0865  0.6665 -1.2653
   94THF     H7 1708   1.707   2.215   0.153  0.5491 -2.0713 -0.8059
   94THF     H8 1709   1.830   2.113   0.241 -1.3480 -1.0914 -0.5569
   95THF     C1 1710   0.476   3.292   1.143  0.0332 -0.1278  0.5589
   95THF     C2 1711   0.590   3.199   1.076  0.5789 -1.5386 -0.4501
   95THF     C3 1712   0.706   3.294   1.064  0.5835 -0.1540  0.1051
   95THF     O1 1713   0.641   3.419   1.033 -0.2902 -0.0078 -0.0724
   95THF     C4 1714   0.534   3.434   1.125 -0.3069  1.1419 -1.0853
   95THF     H1 1715   0.378   3.291   1.093 -0.0415  0.5914  0.6895
   95THF     H2 1716   0.469   3.278   1.251 -1.6526 -1.8187  0.2723
   95THF     H3 1717   0.564   3.151   0.981 -0.5228  0.5684 -1.2356
   95THF     H4 1718   0.624   3.114   1.138  0.0365 -2.0751 -0.8783
   95THF     H5 1719   0.742   3.312   1.166 -0.2741 -0.1722  0.4155
   95THF     H6 1720   0.789   3.270   0.996 -1.0135 -1.5008 -1.4177
   95THF     H7 1721   0.568   3.477   1.220  2.2372 -0.8239 -1.0182
   95THF     H8 1722   0.456   3.504   1.093  0.0205  1.5971 -0.8967
   96THF     C1 1723   3.147   1.270   1.090 -0.2120 -0.4852  0.3288
   96THF     C2 1724   3.240   1.367   1.155  0.2737  0.0458 -0.3959
   96THF     C3 1725   3.305   1.443   1.031  0.1436  0.3506 -0.2674
   96THF     O1 1726   3.317   1.340   0.931  0.7438  0.3115  0.5757
   96THF     C4 1727   3.219   1.239   0.953  0.2386  0.1344 -0.0887
   96THF     H1 1728   3.129   1.179   1.148  0.1025 -1.3502 -0.9025
   96THF     H2 1729   3.050   1.317   1.075 -0.3927 -0.3438  1.8351
   96THF     H3 1730   3.318   1.330   1.222 -1.4013  0.4697  1.8336
   96THF     H4 1731   3.190   1.437   1.223 -1.1982  0.7480 -2.1503
   96THF     H5 1732   3.242   1.523   0.991 -0.0507  0.3025 -0.0641
   96THF     H6 1733   3.403   1.487   1.056  0.7521 -0.7696 -0.6597
   96THF     H7 1734   3.145   1.261   0.876 -2.4675 -1.0449  2.1040
   96THF     H8 1735   3.254   1.135   0.947 -3.0102 -0.9887 -0.2055
   97THF     C1 1736   1.984   0.644   1.137  0.1793  0.7885 -0.6902
   97THF     C2 1737   2.045   0.523   1.066 -0.2331 -0.3031  0.2736
   97THF     C3 1738   1.959   0.506   0.942 -0.3778 -0.2873 -0.5501
   97THF     O1 1739   1.849   0.598   0.964  0.2864  0.0552  0.2289
   97THF     C4 1740   1.901   0.714   1.023  0.0757  0.0065 -0.4213
   97THF     H1 1741   1.914   0.617   1.217  0.8045  0.4425 -0.2566
   97THF     H2 1742   2.063   0.708   1.179  0.5524 -1.0838  1.5876
   97THF     H3 1743   2.043   0.429   1.121  2.2240 -2.0364 -2.4738
   97THF     H4 1744   2.148   0.534   1.030 -0.5536 -0.1922 -0.6243
   97THF     H5 1745   2.015   0.533   0.852  0.1406 -1.3859 -0.5598
   97THF     H6 1746   1.942   0.401   0.915  0.0299  0.2801 -3.1090
   97THF     H7 1747   1.970   0.766   0.955 -0.0882 -0.4025 -0.9049
   97THF     H8 1748   1.826   0.781   1.064 -0.4309 -1.3749  0.9528
   98THF     C1 1749   3.263   0.156   0.414  0.4184  0.3005  0.2172
   98THF     C2 1750   3.109   0.156   0.389  0.8787  0.3410  0.6560
   98THF     C3 1751   3.093   0.015   0.320  0.6541 -1.2370  0.7667
   98THF     O1 1752   3.180  -0.072   0.398 -0.4652 -0.6083  0.1107
   98THF     C4 1753   3.308  -0.000   0.425  0.1091  0.5538 -0.0102
   98THF     H1 1754   3.321   0.217   0.343  0.2681 -1.4746 -1.4678
   98THF     H2 1755   3.291   0.202   0.509 -1.9073 -0.0972  1.1182
   98THF     H3 1756   3.078   0.244   0.330 -0.3471 -0.4290  0.1313
   98THF     H4 1757   3.062   0.157   0.488 -1.9129 -0.5866 -0.5964
   98THF     H5 1758   2.992  -0.027   0.324  0.2839 -0.7464 -2.0996
   98THF     H6 1759   3.126   0.015   0.215 -2.1842 -0.1085 -0.1643
   98THF     H7 1760   3.353  -0.023   0.523  2.9800  0.2804 -1.3510
   98THF     H8 1761   3.378  -0.021   0.344 -0.1722 -0.0610 -0.1018
   99THF     C1 1762   0.296   3.229   0.614 -0.1759 -0.1814 -0.1478
   99THF     C2 1763   0.384   3.355   0.627  0.1248 -0.3040 -0.4709
   99THF     C3 1764   0.367   3.399   0.776 -0.4251  0.6082  0.0019
   99THF     O1 1765   0.263   3.311   0.831 -0.1356  0.1025 -0.1150
   99THF     C4 1766   0.275   3.189   0.770 -0.0596  0.8779 -0.6476
   99THF     H1 1767   0.215   3.253   0.544  1.4690 -0.2969 -2.1568
   99THF     H2 1768   0.338   3.142   0.563  1.0632 -0.9692  2.1681
   99THF     H3 1769   0.350   3.431   0.555  0.9448  0.5909  0.0754
   99THF     H4 1770   0.489   3.336   0.600  0.3910 -0.7204  0.8486
   99THF     H5 1771   0.458   3.380   0.835  0.2980  1.0795 -0.9627
   99THF     H6 1772   0.340   3.504   0.788  2.2171  1.5522 -1.9006
   99THF     H7 1773   0.357   3.138   0.823 -0.9330  0.6202  0.4952
   99THF     H8 1774   0.186   3.129   0.795  0.2338  1.0764  0.9241
  100THF     C1 1775   0.922   1.428   1.117 -0.3453  0.4367  0.2698
  100THF     C2 1776   1.040   1.457   1.016  0.0679  0.0693 -0.0892
  100THF     C3 1777   0.966   1.500   0.892 -0.1542  0.5101 -0.2314
  100THF     O1 1778   0.838   1.428   0.891  0.1354 -0.3344 -0.1661
  100THF     C4 1779   0.804   1.383   1.024  0.0705 -0.2743  0.5824
  100THF     H1 1780   0.956   1.347   1.181  0.4006  0.5464  0.0172
  100THF     H2 1781   0.894   1.522   1.165  1.7113 -0.0204  2.4257
  100THF     H3 1782   1.104   1.371   0.993  0.5958  0.5141 -0.2759
  100THF     H4 1783   1.092   1.545   1.054  1.1727  0.3330 -2.1405
  100THF     H5 1784   0.952   1.608   0.911  1.6581  0.8565 -0.7231
  100THF     H6 1785   1.022   1.492   0.798 -0.4479  0.9796 -0.4517
  100THF     H7 1786   0.710   1.432   1.051 -0.3959 -1.3077  0.8367
  100THF     H8 1787   0.784   1.275   1.018  1.1046 -0.3605 -1.6487
  101THF     C1 1788   3.008   1.381   3.287 -0.3661  0.2085 -0.2311
  101THF     C2 1789   2.966   1.245   3.365 -0.8377 -0.5008 -0.6714
  101THF     C3 1790   2.838   1.288   3.431  0.4772  0.4385  0.1994
  101THF     O1 1791   2.870   1.424   3.470 -0.0165  0.2581  0.8093
  101THF     C4 1792   2.946   1.492   3.368 -0.1495  0.6867  0.5725
  101THF     H1 1793   3.114   1.396   3.264 -0.6047  0.0774 -1.4659
  101THF     H2 1794   2.953   1.374   3.192 -0.5794 -0.5178 -0.0572
  101THF     H3 1795   3.039   1.223   3.444 -0.2436 -1.2548 -1.4324
  101THF     H4 1796   2.956   1.155   3.304 -2.4655 -2.2228  2.0405
  101THF     H5 1797   2.760   1.290   3.353  2.6001 -2.6628 -2.1541
  101THF     H6 1798   2.809   1.231   3.520  0.9738  0.9956  0.7189
  101THF     H7 1799   2.875   1.555   3.313  0.4276  2.1403  1.4728
  101THF     H8 1800   3.024   1.550   3.419 -0.5061  0.6333  1.1776
  102THF     C1 1801   2.999   0.906   0.996 -0.1560  0.7358  0.8384
  102THF     C2 1802   3.094   0.850   1.100  0.2122  0.0814  0.0693
  102THF     C3 1803   3.070   0.703   1.098 -0.0404  0.2689  0.1097
  102THF     O1 1804   3.008   0.679   0.970  0.5313 -0.6703  0.0406
  102THF     C4 1805   3.016   0.795   0.892  0.1922 -1.0013  0.2284
  102THF     H1 1806   2.895   0.908   1.028 -0.9561  0.3166 -1.5985
  102THF     H2 1807   3.015   1.005   0.952 -2.2289  0.6334 -0.2207
  102THF     H3 1808   3.080   0.890   1.202  0.6900  0.0353  0.1508
  102THF     H4 1809   3.199   0.872   1.080  0.1081  0.4127 -0.1221
  102THF     H5 1810   3.160   0.641   1.109 -0.4367 -0.4348 -0.6045
  102THF     H6 1811   3.001   0.660   1.172  1.9894 -0.1648  1.7955
  102THF     H7 1812   3.113   0.808   0.842 -0.0210 -1.0780 -0.2053
  102THF     H8 1813   2.943   0.795   0.810  0.7342  1.2853 -0.2902
  103THF     C1 1814   0.361   1.137   0.019  0.1339  0.7127 -0.3644
  103THF     C2 1815   0.333   1.048   0.147  0.1506 -0.4719  0.1855
  103THF     C3 1816   0.368   0.903   0.110  0.3517  0.0725 -0.1802
  103THF     O1 1817   0.445   0.923  -0.009  0.0971  1.0421 -0.1397
  103THF     C4 1818   0.386   1.032  -0.089  0.1613 -0.0629  0.1126
  103THF     H1 1819   0.273   1.195  -0.011 -0.7373  0.0448  0.8786
  103THF     H2 1820   0.456   1.192   0.026 -0.2825  1.3189  0.6517
  103THF     H3 1821   0.231   1.055   0.187  0.5525  0.1639  1.1030
  103THF     H4 1822   0.400   1.079   0.228  1.6152  0.8779 -1.5043
  103THF     H5 1823   0.433   0.843   0.176 -0.5512  0.4164  1.0214
  103THF     H6 1824   0.283   0.838   0.085  1.0371 -0.1292 -2.0592
  103THF     H7 1825   0.455   1.062  -0.169  0.0573  0.5957  0.2689
  103THF     H8 1826   0.295   0.994  -0.137  0.7493 -0.8911 -0.3665
  104THF     C1 1827   2.574   2.232   0.782  0.8670 -0.0555 -0.2716
  104THF     C2 1828   2.599   2.390   0.802  0.3178 -0.2994 -0.1154
  104THF     C3 1829   2.451   2.434   0.795 -0.4274  0.1514 -0.1428
  104THF     O1 1830   2.399   2.368   0.683 -0.3797  0.0939 -0.5035
  104THF     C4 1831   2.444   2.229   0.698  0.4507  0.0990  0.4949
  104THF     H1 1832   2.648   2.200   0.707 -0.3439 -2.4745 -0.4905
  104THF     H2 1833   2.594   2.163   0.865 -1.8195  0.4247  0.8240
  104THF     H3 1834   2.655   2.431   0.718  0.0887  0.6309  0.1788
  104THF     H4 1835   2.651   2.430   0.890 -0.6849  1.6091 -0.3501
  104THF     H5 1836   2.413   2.399   0.892  1.0923 -3.2432 -0.6991
  104THF     H6 1837   2.447   2.543   0.782  0.0759  0.2640  0.6001
  104THF     H7 1838   2.362   2.178   0.749  1.1954  1.1857  2.8157
  104THF     H8 1839   2.459   2.187   0.597  0.1424  1.1075  0.0211
  105THF     C1 1840   1.687   1.699   1.063 -0.5134 -0.1564  0.0231
  105THF     C2 1841   1.703   1.838   1.005  0.2015 -0.2666 -0.1793
  105THF     C3 1842   1.673   1.813   0.854  0.0758  0.1753  0.2413
  105THF     O1 1843   1.709   1.680   0.829 -0.5192  0.6696 -0.2825
  105THF     C4 1844   1.740   1.608   0.948 -0.6290 -1.1714  0.1312
  105THF     H1 1845   1.743   1.683   1.156 -0.9530 -1.7921  0.0263
  105THF     H2 1846   1.581   1.674   1.079 -0.9594  0.8944 -1.2432
  105THF     H3 1847   1.806   1.870   1.023  0.1111 -0.6835  1.1535
  105THF     H4 1848   1.627   1.904   1.049  0.2166 -0.0651 -0.4543
  105THF     H5 1849   1.566   1.825   0.831 -0.5593  0.1488  3.0386
  105THF     H6 1850   1.722   1.882   0.784 -1.2748  1.1236  0.2047
  105THF     H7 1851   1.692   1.510   0.947  1.3765 -2.1905 -1.1633
  105THF     H8 1852   1.849   1.593   0.949 -0.0519  2.4109 -0.9525
  106THF     C1 1853   2.293   0.482   0.165  0.7792 -0.1438  0.0809
  106THF     C2 1854   2.143   0.516   0.133 -0.1653 -0.2853  0.0223
  106THF     C3 1855   2.152   0.569  -0.010  0.3811  0.5019  0.3264
  106THF     O1 1856   2.295   0.608  -0.032  0.8072 -0.2645  0.5001
  106THF     C4 1857   2.363   0.593   0.091 -0.2147  0.5124 -0.0652
  106THF     H1 1858   2.312   0.496   0.272  1.5263 -0.7031  0.0284
  106THF     H2 1859   2.330   0.382   0.141 -0.0676  0.0658 -2.2775
  106THF     H3 1860   2.098   0.588   0.203  0.6117  0.9868 -0.7610
  106THF     H4 1861   2.083   0.425   0.129 -3.4508  1.8262 -0.5195
  106THF     H5 1862   2.139   0.494  -0.089  1.5416  1.1660 -0.4936
  106THF     H6 1863   2.086   0.654  -0.032  0.6974  0.5813 -0.3222
  106THF     H7 1864   2.467   0.568   0.068 -0.6576  0.0200 -1.5532
  106THF     H8 1865   2.364   0.692   0.139 -1.1018  0.9439 -0.9243
  107THF     C1 1866   1.014   0.556   1.099  0.0343 -0.1423 -0.7182
  107THF     C2 1867   1.173   0.605   1.083 -0.4715  0.4841  0.1119
  107THF     C3 1868   1.157   0.757   1.059 -0.5190 -0.7838  0.2860
  107THF     O1 1869   1.048   0.789   1.140 -0.1982  0.1243 -0.3455
  107THF     C4 1870   0.947   0.694   1.102  0.4447 -0.1819  0.5260
  107THF     H1 1871   0.986   0.510   1.003  0.5407  3.5662 -2.7274
  107THF     H2 1872   0.984   0.492   1.182 -0.0218 -0.1770 -0.7651
  107THF     H3 1873   1.227   0.552   1.004 -2.2456 -2.0001  0.5459
  107THF     H4 1874   1.229   0.583   1.175 -0.5308 -0.8380 -0.1590
  107THF     H5 1875   1.250   0.801   1.097 -0.1407 -2.1509  0.9851
  107THF     H6 1876   1.142   0.787   0.954  1.4909  1.0784  0.4965
  107THF     H7 1877   0.877   0.688   1.186  1.4736 -0.6411  1.3632
  107THF     H8 1878   0.891   0.715   1.010  0.0029 -3.2545  0.0424
  108THF     C1 1879   2.062   2.704   0.573 -0.0536 -0.7479  0.2721
  108THF     C2 1880   2.125   2.601   0.670 -0.6767 -0.6333 -0.6830
  108THF     C3 1881   2.084   2.476   0.599  0.6232 -0.1174  0.3665
  108THF     O1 1882   1.941   2.493   0.570  0.2433 -0.9252  0.3836
  108THF     C4 1883   1.922   2.633   0.546  0.2204 -0.0738 -0.3534
  108THF     H1 1884   2.061   2.803   0.621  1.8779 -0.6026  0.0267
  108THF     H2 1885   2.126   2.705   0.484 -0.4582 -0.0972 -0.0189
  108THF     H3 1886   2.076   2.608   0.767  3.4426  2.2766  1.3407
  108THF     H4 1887   2.232   2.622   0.681 -1.3074  2.1169  0.4403
  108THF     H5 1888   2.140   2.458   0.506 -1.6808  0.1272 -1.1074
  108THF     H6 1889   2.105   2.392   0.666 -0.9093 -0.5062  0.3731
  108THF     H7 1890   1.892   2.634   0.440  1.6509  2.3908 -0.7773
  108THF     H8 1891   1.835   2.665   0.606 -2.2053 -0.3517 -3.6030
  109THF     C1 1892   0.293   2.403   1.048 -0.1980 -0.1314  0.2556
  109THF     C2 1893   0.399   2.323   1.123  0.6532 -0.1851  0.3994
  109THF     C3 1894   0.528   2.396   1.061  0.2947 -0.0044  0.3127
  109THF     O1 1895   0.496   2.531   1.046 -0.2922 -0.4332 -0.2216
  109THF     C4 1896   0.350   2.544   1.052 -0.0897 -0.1095  0.1938
  109THF     H1 1897   0.271   2.364   0.949  0.7060 -1.3252  0.5121
  109THF     H2 1898   0.200   2.393   1.105 -0.4266  0.9681  0.0900
  109THF     H3 1899   0.392   2.218   1.091  1.6286 -0.1652  0.0915
  109THF     H4 1900   0.375   2.329   1.230 -0.5431  2.4806  0.0096
  109THF     H5 1901   0.624   2.377   1.111  0.0435 -1.6405  0.2135
  109THF     H6 1902   0.532   2.354   0.960 -1.4975 -1.5606  0.8614
  109THF     H7 1903   0.312   2.594   1.142  0.0822  1.4660 -0.6030
  109THF     H8 1904   0.323   2.606   0.966  0.9379  0.5505  0.3370
  110THF     C1 1905   0.080   2.837   0.919 -0.5762  0.2697  0.8418
  110THF     C2 1906   0.204   2.896   0.995  0.4890 -0.0113 -0.0917
  110THF     C3 1907   0.169   2.852   1.146 -0.0576 -1.0505 -0.7838
  110THF     O1 1908   0.071   2.744   1.132  0.0669  0.3343 -0.4427
  110THF     C4 1909  -0.016   2.785   1.025  0.2770  0.1146 -0.4231
  110THF     H1 1910   0.039   2.902   0.841 -0.1129 -1.3982 -0.8339
  110THF     H2 1911   0.103   2.753   0.852 -0.5325  1.2867 -0.4516
  110THF     H3 1912   0.220   3.004   0.991  0.4393  0.0368  0.7745
  110THF     H4 1913   0.297   2.843   0.971  1.0271  0.5641  0.6767
  110THF     H5 1914   0.252   2.811   1.205 -0.0841 -2.1089 -1.4713
  110THF     H6 1915   0.122   2.929   1.209 -0.9954 -0.2322 -2.4466
  110THF     H7 1916  -0.085   2.703   1.001  0.2638  0.2713 -0.9255
  110THF     H8 1917  -0.080   2.868   1.059  0.7437  1.1508 -2.0269
  111THF     C1 1918   0.065   1.603   0.730 -0.1789 -0.3364 -0.0880
  111THF     C2 1919   0.095   1.500   0.627  0.4029 -0.1630 -0.3156
  111THF     C3 1920   0.226   1.553   0.560  0.5998  0.1302  0.4228
  111THF     O1 1921   0.197   1.693   0.546 -0.1875  0.3071  0.1708
  111THF     C4 1922   0.130   1.727   0.670 -0.6244 -0.1351  0.4175
  111THF     H1 1923  -0.041   1.615   0.755 -0.5743 -1.8372 -1.0331
  111THF     H2 1924   0.106   1.582   0.829 -0.8941  0.7765  0.4636
  111THF     H3 1925   0.018   1.499   0.549  0.5816  1.0868 -0.5213
  111THF     H4 1926   0.104   1.400   0.671 -1.5149  0.0762  0.6536
  111THF     H5 1927   0.319   1.544   0.617  0.3318  0.6426  0.9417
  111THF     H6 1928   0.232   1.515   0.457 -1.3969  0.5909  0.1181
  111THF     H7 1929   0.194   1.780   0.742 -1.2918 -0.6212  1.3793
  111THF     H8 1930   0.047   1.796   0.646 -0.8019 -0.9475 -1.3648
  112THF     C1 1931   2.855   0.887   0.017  0.2882  0.2208  0.1825
  112THF     C2 1932   2.713   0.951  -0.015  0.3291 -0.4768  0.1206
  112THF     C3 1933   2.626   0.831   0.025 -0.0195  0.6735  0.7405
  112THF     O1 1934   2.685   0.796   0.151  0.2603  0.6263 -0.0894
  112THF     C4 1935   2.825   0.799   0.142  0.1005  0.9588  0.2283
  112THF     H1 1936   2.891   0.821  -0.063  0.2881 -0.0031  0.3676
  112THF     H2 1937   2.924   0.970   0.036 -0.7076  1.0376  0.2640
  112THF     H3 1938   2.694   0.972  -0.120 -1.4422  1.0907  0.7076
  112THF     H4 1939   2.696   1.037   0.052 -2.1461 -2.5134  2.2258
  112THF     H5 1940   2.519   0.857   0.029 -0.0136  1.5569 -2.8088
  112THF     H6 1941   2.630   0.749  -0.048 -2.0668  0.4010  0.9126
  112THF     H7 1942   2.868   0.852   0.228 -0.2227  2.7148 -0.6631
  112THF     H8 1943   2.862   0.697   0.129  0.4023  1.3350 -2.0029
  113THF     C1 1944   0.807   2.650   1.131 -0.0189  0.6256 -0.3528
  113THF     C2 1945   0.775   2.722   1.000  0.2422 -0.3737 -0.0370
  113THF     C3 1946   0.713   2.848   1.047 -0.0585  0.5671  0.0604
  113THF     O1 1947   0.794   2.885   1.164 -0.3511 -0.1158  0.0078
  113THF     C4 1948   0.841   2.763   1.222  0.3099 -0.1967  0.3098
  113THF     H1 1949   0.725   2.594   1.178  0.7465 -1.7845 -1.7576
  113THF     H2 1950   0.895   2.585   1.123 -1.0996 -0.9011 -0.1040
  113THF     H3 1951   0.705   2.662   0.941 -1.2449  1.1298  0.1789
  113THF     H4 1952   0.863   2.750   0.941 -0.3195 -2.0921 -1.7513
  113THF     H5 1953   0.702   2.923   0.967  0.4048  0.5072 -0.0616
  113THF     H6 1954   0.614   2.829   1.088 -0.4738  0.4411 -0.9815
  113THF     H7 1955   0.945   2.786   1.248 -0.0736  4.4103 -1.6754
  113THF     H8 1956   0.776   2.751   1.310 -0.6520  1.0309 -0.2196
  114THF     C1 1957   0.786   0.179   3.314  0.2255  0.8016  0.9675
  114THF     C2 1958   0.773   0.071   3.199 -0.6360 -0.6549  0.3142
  114THF     C3 1959   0.741   0.168   3.079  0.1228  0.5398 -0.4412
  114THF     O1 1960   0.672   0.267   3.129  0.1475  0.3943  0.8912
  114THF     C4 1961   0.746   0.312   3.248  0.0552 -0.8388 -0.0698
  114THF     H1 1962   0.728   0.149   3.402  0.2107 -2.3766 -0.0489
  114THF     H2 1963   0.890   0.187   3.348  0.5933  0.8125 -0.1456
  114THF     H3 1964   0.696  -0.005   3.210 -0.2685 -0.8928  1.3198
  114THF     H4 1965   0.870   0.021   3.185  0.8776  2.0026  0.7754
  114THF     H5 1966   0.832   0.204   3.030  0.3479  1.1331  0.3927
  114THF     H6 1967   0.673   0.115   3.011  1.2174 -1.2471 -0.1634
  114THF     H7 1968   0.828   0.373   3.209 -1.3752  1.1188 -0.1462
  114THF     H8 1969   0.679   0.366   3.317 -0.2930  0.3857 -1.3409
  115THF     C1 1970   0.931   2.638   0.086 -0.3891  0.2080  0.6194
  115THF     C2 1971   0.885   2.777   0.119  0.0807 -0.4915  1.0642
  115THF     C3 1972   0.789   2.761   0.235 -0.0820  0.3248 -0.1618
  115THF     O1 1973   0.818   2.635   0.281  0.0270 -0.3398 -0.1529
  115THF     C4 1974   0.839   2.550   0.170 -0.4469 -0.1809 -0.2497
  115THF     H1 1975   0.912   2.621  -0.021  0.9870 -1.6819  0.6496
  115THF     H2 1976   1.036   2.618   0.108  0.2422  2.9531  0.2761
  115THF     H3 1977   0.831   2.822   0.035 -1.9833 -1.3298  1.9004
  115THF     H4 1978   0.968   2.845   0.140  0.0219 -0.0682 -0.0806
  115THF     H5 1979   0.821   2.834   0.311 -0.5377  0.9539 -0.5625
  115THF     H6 1980   0.684   2.778   0.209  0.1569  3.0618  0.4560
  115THF     H7 1981   0.890   2.459   0.204 -1.4842 -0.6052  0.2028
  115THF     H8 1982   0.740   2.536   0.125 -0.8481  1.8718 -0.0675
  116THF     C1 1983   0.271   0.499   1.419 -0.6978  0.3494  0.2353
  116THF     C2 1984   0.379   0.607   1.459  0.5661 -0.1980  0.0721
  116THF     C3 1985   0.281   0.711   1.526  0.8126  0.0224  0.3161
  116THF     O1 1986   0.168   0.636   1.566 -0.1086  0.0105 -0.5318
  116THF     C4 1987   0.192   0.495   1.550 -0.0494 -0.0856 -0.4175
  116THF     H1 1988   0.200   0.528   1.341  0.9608  3.0019 -0.3503
  116THF     H2 1989   0.314   0.403   1.390 -1.5925  0.5884 -1.9699
  116THF     H3 1990   0.437   0.652   1.378  1.9868 -0.6858  0.8039
  116THF     H4 1991   0.451   0.565   1.530 -1.2899 -1.7262  1.1194
  116THF     H5 1992   0.329   0.744   1.619 -0.1430 -1.0078  1.1839
  116THF     H6 1993   0.252   0.791   1.457 -0.9213  1.0526  2.1673
  116THF     H7 1994   0.254   0.462   1.634  0.7168 -1.3774 -1.4783
  116THF     H8 1995   0.094   0.447   1.537 -0.0721 -0.0405 -0.4136
  117THF     C1 1996   1.504   3.047   1.345  0.3636 -0.5821  0.2216
  117THF     C2 1997   1.558   3.062   1.492  0.4891  0.2547 -0.7364
  117THF     C3 1998   1.548   2.914   1.541 -0.1036 -0.0885  0.4623
  117THF     O1 1999   1.418   2.887   1.492 -0.0980 -0.0103 -0.5888
  117THF     C4 2000   1.425   2.910   1.350 -0.2421 -0.2759  0.1841
  117THF     H1 2001   1.430   3.124   1.320  1.5105  0.2165 -0.7486
  117THF     H2 2002   1.580   3.039   1.267 -1.4452  0.0906 -1.6422
  117THF     H3 2003   1.496   3.131   1.550  2.2222  0.9263  0.3665
  117THF     H4 2004   1.651   3.119   1.490  0.7359 -0.1171 -0.1622
  117THF     H5 2005   1.609   2.840   1.488 -0.2475 -0.6281  1.0414
  117THF     H6 2006   1.557   2.910   1.650  2.3054 -1.4795  0.2506
  117THF     H7 2007   1.472   2.819   1.311  0.7034  0.4704 -0.4288
  117THF     H8 2008   1.327   2.920   1.300 -0.1429 -2.6949 -0.5861
  118THF     C1 2009   1.779   1.122   0.541  0.2676 -0.1011  0.0310
  118THF     C2 2010   1.874   1.140   0.421  0.2555  0.1556 -0.3356
  118THF     C3 2011   1.799   1.246   0.341 -0.8325  0.3841  0.5031
  118THF     O1 2012   1.697   1.306   0.423 -0.0576 -0.3433 -0.4242
  118THF     C4 2013   1.735   1.267   0.562 -0.3960  0.2518  0.9577
  118THF     H1 2014   1.692   1.062   0.510  0.0935 -0.6203  1.4753
  118THF     H2 2015   1.822   1.080   0.632  0.8189 -1.5772 -0.8891
  118THF     H3 2016   1.888   1.044   0.371 -0.5740  0.3880 -1.0223
  118THF     H4 2017   1.972   1.177   0.453  0.5908  0.2311 -1.4287
  118THF     H5 2018   1.864   1.322   0.295 -0.7675 -0.3585 -0.6609
  118THF     H6 2019   1.745   1.187   0.266 -0.0908  0.8751 -0.4311
  118THF     H7 2020   1.821   1.327   0.595  0.1786  0.3039 -0.5813
  118THF     H8 2021   1.648   1.279   0.628  0.1246 -0.6757  1.8277
  119THF     C1 2022   3.234   3.292   0.892 -0.7878  0.3162  0.3483
  119THF     C2 2023   3.161   3.212   0.783 -0.0181  0.2055  0.5361
  119THF     C3 2024   3.134   3.075   0.852  0.2200  0.2799 -0.0532
  119THF     O1 2025   3.203   3.074   0.977 -0.2671  0.2107  0.5316
  119THF     C4 2026   3.307   3.178   0.974 -0.8105 -0.3216 -0.0821
  119THF     H1 2027   3.307   3.361   0.848  0.1954 -0.6087  0.5071
  119THF     H2 2028   3.163   3.341   0.959 -1.5997 -0.8386  0.3422
  119THF     H3 2029   3.230   3.208   0.697 -1.5085 -1.3132 -0.6232
  119THF     H4 2030   3.064   3.250   0.750  1.2623  2.7889 -0.4761
  119THF     H5 2031   3.028   3.077   0.878 -0.1198  0.8843 -1.4327
  119THF     H6 2032   3.154   2.989   0.787 -1.7429 -0.8788  0.8309
  119THF     H7 2033   3.341   3.217   1.071  0.4055 -0.6904 -0.3514
  119THF     H8 2034   3.397   3.146   0.920 -0.0688  2.5535 -0.6316
  120THF     C1 2035   0.063   1.049   1.393  0.0003 -0.4964  0.8138
  120THF     C2 2036  -0.052   0.970   1.332  0.1198  0.8426  0.0234
  120THF     C3 2037  -0.169   1.050   1.386  0.5102  0.2923 -0.0804
  120THF     O1 2038  -0.127   1.073   1.528 -0.1695 -0.4353  0.3284
  120THF     C4 2039   0.016   1.071   1.538 -0.4018 -0.2567  0.2901
  120THF     H1 2040   0.165   1.011   1.386  0.7381  1.5457  0.2341
  120THF     H2 2041   0.075   1.143   1.339  0.5882 -1.4294 -0.7166
  120THF     H3 2042  -0.055   0.867   1.370 -2.5200  1.7324  2.4062
  120THF     H4 2043  -0.056   0.975   1.223  2.5213 -1.9217 -0.2637
  120THF     H5 2044  -0.172   1.151   1.342  1.2623  1.1148  1.6853
  120THF     H6 2045  -0.268   1.005   1.395  0.0711  1.0278 -1.1917
  120THF     H7 2046   0.067   1.157   1.582 -1.4745  0.0048  1.0335
  120THF     H8 2047   0.037   0.980   1.595  0.2884  0.4394  1.1472
  121THF     C1 2048   2.408   0.850   1.218  0.2388  0.1119 -0.8239
  121THF     C2 2049   2.529   0.921   1.152 -0.5560 -0.0906  0.2520
  121THF     C3 2050   2.616   0.796   1.103 -0.5195 -0.3761  0.1998
  121THF     O1 2051   2.527   0.687   1.094 -0.0333 -0.0125  0.4081
  121THF     C4 2052   2.391   0.730   1.122  0.1981  0.2619  0.0050
  121THF     H1 2053   2.434   0.821   1.321 -2.8366  1.4911  0.4216
  121THF     H2 2054   2.318   0.911   1.230  0.1228 -0.2260  0.1271
  121THF     H3 2055   2.582   0.998   1.210  2.6653 -2.3277  0.3564
  121THF     H4 2056   2.487   0.973   1.065  4.6860 -1.0936 -3.0936
  121THF     H5 2057   2.661   0.805   1.003 -1.4487  0.6177 -0.1425
  121THF     H6 2058   2.692   0.767   1.175 -0.9278 -0.2203  0.6943
  121THF     H7 2059   2.349   0.765   1.027 -1.2463  1.4830  1.0737
  121THF     H8 2060   2.330   0.649   1.164  1.2674 -0.1883  0.7023
  122THF     C1 2061   1.594   1.760   3.608 -0.4051 -0.1325 -0.6521
  122THF     C2 2062   1.718   1.848   3.592  0.2444  0.0084 -0.4027
  122THF     C3 2063   1.665   1.989   3.626  0.4874 -0.1283 -0.2986
  122THF     O1 2064   1.520   1.972   3.617 -0.0223 -0.3850  0.0636
  122THF     C4 2065   1.490   1.856   3.546  0.4098  0.0214 -0.2528
  122THF     H1 2066   1.612   1.673   3.543 -1.6997 -2.0677  1.4951
  122THF     H2 2067   1.581   1.735   3.714 -1.2196  1.6100 -0.3273
  122THF     H3 2068   1.742   1.855   3.486 -1.7479 -4.4058 -1.2667
  122THF     H4 2069   1.804   1.810   3.648  1.1834  1.4817 -0.8206
  122THF     H5 2070   1.682   2.017   3.731 -1.6587  1.6880 -0.4042
  122THF     H6 2071   1.694   2.072   3.561 -1.2977 -0.4165 -1.4792
  122THF     H7 2072   1.384   1.833   3.561 -0.4193  3.3586 -0.4716
  122THF     H8 2073   1.513   1.874   3.440  0.3291 -0.0725 -0.2861
  123THF     C1 2074   0.795   0.140   0.431 -0.0944  0.0844 -0.2600
  123THF     C2 2075   0.764   0.197   0.574  0.5182 -0.3428 -0.1935
  123THF     C3 2076   0.890   0.281   0.602 -0.2600  0.1237 -0.1956
  123THF     O1 2077   0.984   0.191   0.552 -0.4754 -0.0987  0.0261
  123THF     C4 2078   0.946   0.140   0.424 -0.0761  0.1606  0.0784
  123THF     H1 2079   0.748   0.042   0.418 -1.3826  0.6838 -0.1286
  123THF     H2 2080   0.745   0.194   0.350 -1.0209  0.9129  0.8550
  123THF     H3 2081   0.750   0.114   0.644 -2.2544 -0.5557 -0.9168
  123THF     H4 2082   0.677   0.264   0.586  0.6532 -0.2267  0.1275
  123THF     H5 2083   0.895   0.378   0.551  1.1188 -0.6238 -1.5282
  123THF     H6 2084   0.904   0.293   0.710 -0.3910  0.0931 -0.1750
  123THF     H7 2085   0.989   0.201   0.343 -0.3830  1.1107  0.6270
  123THF     H8 2086   0.985   0.038   0.411 -0.6428 -0.4087  2.6742
  124THF     C1 2087   1.565   2.239   0.540 -0.1382 -0.2016 -0.0158
  124THF     C2 2088   1.432   2.178   0.491 -0.1581 -0.1020 -0.0079
  124THF     C3 2089   1.382   2.114   0.631  0.1397 -0.2591  0.1537
  124THF     O1 2090   1.505   2.048   0.679  0.3818  0.2967  0.9121
  124THF     C4 2091   1.619   2.111   0.620 -0.8052 -0.0578 -0.4813
  124THF     H1 2092   1.623   2.267   0.452  0.0709  2.8264  1.0182
  124THF     H2 2093   1.553   2.330   0.600  0.9662 -0.1636  0.1447
  124THF     H3 2094   1.440   2.104   0.411 -2.7118  0.0728 -0.4744
  124THF     H4 2095   1.349   2.242   0.460 -0.6745  0.3826  2.2972
  124THF     H5 2096   1.364   2.199   0.698 -2.0086 -1.2893  0.9253
  124THF     H6 2097   1.296   2.047   0.623  1.2421 -1.4094 -2.7148
  124THF     H7 2098   1.685   2.139   0.703 -0.2116  1.8370 -1.5785
  124THF     H8 2099   1.664   2.039   0.550  1.0857  1.5345 -0.9348
  125THF     C1 2100   1.579   0.690   1.511  0.3054  0.2606  0.3864
  125THF     C2 2101   1.556   0.529   1.497  0.6473 -0.0927 -0.1249
  125THF     C3 2102   1.419   0.513   1.416 -0.4291 -0.1174  0.2741
  125THF     O1 2103   1.354   0.637   1.458  0.3540 -0.2710 -0.3014
  125THF     C4 2104   1.450   0.750   1.442  0.9676  0.2483  0.0506
  125THF     H1 2105   1.582   0.726   1.614 -0.4799  0.4767  0.3373
  125THF     H2 2106   1.676   0.722   1.473 -0.2144  0.2728 -0.9664
  125THF     H3 2107   1.545   0.490   1.599 -0.9358  0.2884 -0.1336
  125THF     H4 2108   1.630   0.476   1.437  3.1658  3.4215 -0.2464
  125THF     H5 2109   1.434   0.515   1.307  1.4728  0.2815  0.5235
  125THF     H6 2110   1.359   0.426   1.447  0.1292 -0.1384  1.2864
  125THF     H7 2111   1.464   0.772   1.335 -0.0141  2.2500  0.3087
  125THF     H8 2112   1.413   0.839   1.493 -1.0824 -1.6788  2.0520
  126THF     C1 2113   1.794   1.824   2.647  0.5507  0.9620 -0.2366
  126THF     C2 2114   1.879   1.888   2.754 -0.3206  0.4042 -0.9770
  126THF     C3 2115   1.951   1.761   2.798 -0.6113 -0.6891  0.5721
  126THF     O1 2116   2.010   1.726   2.668  0.4967  0.1150 -0.8107
  126THF     C4 2117   1.899   1.733   2.576 -0.5894  0.1629 -0.3732
  126THF     H1 2118   1.724   1.752   2.691  2.1274 -1.1810 -1.1091
  126THF     H2 2119   1.742   1.889   2.576 -0.7901  0.1856  0.0178
  126THF     H3 2120   1.834   1.936   2.842  0.3453 -4.5987  2.3467
  126THF     H4 2121   1.949   1.962   2.713 -0.4111  0.7001 -0.6073
  126THF     H5 2122   2.030   1.779   2.871  2.0653  0.0330 -2.3637
  126THF     H6 2123   1.873   1.686   2.819  0.7896 -2.0343  1.1084
  126THF     H7 2124   1.928   1.771   2.477 -0.3574 -1.3601 -0.9021
  126THF     H8 2125   1.859   1.634   2.551  1.3274 -0.5372 -0.7516
  127THF     C1 2126   1.161   2.662   1.555  0.3094 -0.5245  0.6162
  127THF     C2 2127   1.178   2.637   1.403 -0.6768  0.1705  0.3435
  127THF     C3 2128   1.071   2.528   1.391 -0.1090 -0.6459  0.1900
  127THF     O1 2129   0.962   2.602   1.446  0.9542 -0.4735 -0.0542
  127THF     C4 2130   1.009   2.673   1.561  0.3658  0.6752 -0.1256
  127THF     H1 2131   1.205   2.574   1.604  0.7404 -1.0674 -0.7021
  127THF     H2 2132   1.214   2.752   1.589  0.3418  0.9383 -3.1031
  127THF     H3 2133   1.275   2.591   1.379 -1.1360  0.0589 -1.4008
  127THF     H4 2134   1.179   2.724   1.337  4.1517 -0.3266 -0.4609
  127THF     H5 2135   1.045   2.499   1.289  1.3465 -2.9806  0.4447
  127THF     H6 2136   1.092   2.444   1.458 -0.9730  0.4860  1.9164
  127THF     H7 2137   0.984   2.779   1.545  0.3886  0.8084  0.7032
  127THF     H8 2138   0.961   2.638   1.653 -0.3199  2.8403  0.3941
  128THF     C1 2139   1.362   1.819   1.509 -0.1693 -0.7153 -0.1416
  128THF     C2 2140   1.360   1.978   1.509  0.3448 -0.6065  0.0718
  128THF     C3 2141   1.492   2.017   1.453  0.1437 -0.2293  0.1711
  128THF     O1 2142   1.580   1.918   1.498 -0.5549  0.5124  0.5061
  128THF     C4 2143   1.511   1.794   1.473 -0.0187  0.3157  0.3053
  128THF     H1 2144   1.336   1.774   1.605 -0.6305  0.2395  0.1919
  128THF     H2 2145   1.306   1.772   1.428  0.9631 -2.0908 -0.1461
  128THF     H3 2146   1.349   2.012   1.612 -1.6362 -2.3960  0.4993
  128THF     H4 2147   1.277   2.032   1.461  0.5558  0.2081  0.6300
  128THF     H5 2148   1.491   2.021   1.343  1.8468  0.9166  0.1686
  128THF     H6 2149   1.519   2.116   1.494 -0.3905 -0.1235  0.2731
  128THF     H7 2150   1.533   1.757   1.372 -1.1142 -1.8403  0.8188
  128THF     H8 2151   1.544   1.728   1.554 -2.3681  0.4558  1.4066
  129THF     C1 2152   1.492   2.310   3.789  0.0163 -0.4662  0.1627
  129THF     C2 2153   1.480   2.417   3.900  0.0228  0.4639 -0.2975
  129THF     C3 2154   1.347   2.386   3.978 -0.3771  0.4708  0.1645
  129THF     O1 2155   1.327   2.244   3.944  1.1233 -0.6122  0.1228
  129THF     C4 2156   1.366   2.224   3.809  0.1656  0.5671  0.1666
  129THF     H1 2157   1.500   2.347   3.686 -0.5338 -1.2139 -0.1554
  129THF     H2 2158   1.578   2.244   3.803 -0.7174 -0.9891  2.4251
  129THF     H3 2159   1.477   2.520   3.863  0.4412  0.7780  0.5317
  129THF     H4 2160   1.566   2.415   3.967 -0.6587  0.6190  0.5970
  129THF     H5 2161   1.354   2.399   4.087 -2.9281  0.0125  0.4264
  129THF     H6 2162   1.271   2.454   3.939 -1.0311  0.5904  1.6104
  129THF     H7 2163   1.390   2.118   3.788 -1.7057  0.3823 -1.1658
  129THF     H8 2164   1.291   2.251   3.734  0.0483 -1.6469 -0.5533
  130THF     C1 2165   0.283   0.887   1.061  0.1720 -0.2616  1.1637
  130THF     C2 2166   0.199   0.929   0.939  0.1783 -0.8622 -0.2515
  130THF     C3 2167   0.066   0.843   0.946 -0.4293 -0.7640  0.2455
  130THF     O1 2168   0.060   0.795   1.074 -0.0434  0.9229  0.0236
  130THF     C4 2169   0.191   0.775   1.123 -0.8450  0.3796  0.4489
  130THF     H1 2170   0.380   0.847   1.033 -0.1086 -0.8716  1.0701
  130THF     H2 2171   0.293   0.967   1.136  0.9450 -0.3531  1.1575
  130THF     H3 2172   0.251   0.913   0.845  0.3013 -0.9557 -0.1682
  130THF     H4 2173   0.175   1.036   0.941  2.5395 -0.1167 -4.8237
  130THF     H5 2174  -0.026   0.895   0.917 -0.2777 -1.0926 -0.8469
  130THF     H6 2175   0.071   0.758   0.876 -0.4688 -0.8007  0.2869
  130THF     H7 2176   0.191   0.790   1.232 -4.0686 -0.7038  0.6669
  130THF     H8 2177   0.228   0.674   1.100  1.1145  1.5911 -1.9076
  131THF     C1 2178   2.691   1.255   0.964  0.1487  0.3287  0.0864
  131THF     C2 2179   2.601   1.358   0.886 -0.0817 -0.0484  0.7067
  131THF     C3 2180   2.509   1.274   0.796  0.2117  0.3787 -0.4088
  131THF     O1 2181   2.534   1.144   0.844 -0.6862  0.4215 -0.4356
  131THF     C4 2182   2.673   1.135   0.876 -0.4544 -0.0323 -0.3972
  131THF     H1 2183   2.795   1.287   0.957 -0.2285  1.3367 -1.2587
  131THF     H2 2184   2.660   1.251   1.069  0.3943 -0.3333  0.1385
  131THF     H3 2185   2.663   1.423   0.823 -2.1344  2.5575  1.2779
  131THF     H4 2186   2.548   1.435   0.944  0.5057  3.2770 -2.8939
  131THF     H5 2187   2.402   1.299   0.801  0.4835  1.4949 -0.0759
  131THF     H6 2188   2.546   1.274   0.693  1.5433  1.4605  0.0451
  131THF     H7 2189   2.702   1.039   0.919  0.2893  0.9981  1.4697
  131THF     H8 2190   2.742   1.150   0.791 -0.0111 -1.4397 -0.2999
  132THF     C1 2191   0.658   1.131   1.501 -0.5688  0.0063  0.5894
  132THF     C2 2192   0.664   0.990   1.454 -0.3485  0.3667 -0.4366
  132THF     C3 2193   0.528   0.967   1.394 -0.4084  0.1178 -0.5919
  132THF     O1 2194   0.439   1.035   1.479  0.2755  0.2896 -0.7639
  132THF     C4 2195   0.511   1.161   1.515 -0.0983 -0.1397 -0.2447
  132THF     H1 2196   0.712   1.152   1.594 -0.6517 -0.1567  0.6756
  132THF     H2 2197   0.704   1.207   1.437  0.6855 -0.9464  0.3448
  132THF     H3 2198   0.697   0.917   1.528 -1.1344 -1.0498 -1.4445
  132THF     H4 2199   0.742   0.973   1.379  0.0673  0.0599  0.0623
  132THF     H5 2200   0.518   0.994   1.288 -0.1030 -1.4394 -1.0256
  132THF     H6 2201   0.505   0.860   1.401 -0.8316  0.3210  1.5054
  132THF     H7 2202   0.472   1.230   1.439 -0.1249 -0.8184 -0.8542
  132THF     H8 2203   0.482   1.202   1.612 -0.4728 -0.7934 -0.0774
  133THF     C1 2204   3.017   1.843   1.509  0.2181 -0.2655 -0.1185
  133THF     C2 2205   3.052   1.817   1.352  0.5160  0.1599 -0.2711
  133THF     C3 2206   3.185   1.752   1.372  0.7005  0.5402 -0.1878
  133THF     O1 2207   3.238   1.850   1.447 -0.0422 -0.4806 -0.2293
  133THF     C4 2208   3.159   1.888   1.559 -0.1416 -0.2190 -0.2024
  133THF     H1 2209   2.953   1.932   1.521  2.7907  1.5140  0.8419
  133THF     H2 2210   2.976   1.755   1.560 -1.1701 -0.6237 -1.8034
  133THF     H3 2211   3.047   1.908   1.291 -0.0636  0.4372  0.1777
  133THF     H4 2212   2.978   1.748   1.310  1.6833 -0.5221 -1.2172
  133THF     H5 2213   3.178   1.656   1.426 -3.4950  0.6844 -0.3096
  133THF     H6 2214   3.248   1.734   1.284  1.5558  0.6840  0.3855
  133THF     H7 2215   3.187   1.824   1.644 -2.0759 -1.0484 -0.1702
  133THF     H8 2216   3.168   1.995   1.582  1.0141 -0.4377  0.4296
  134THF     C1 2217   2.170   3.383   1.106 -0.9534 -0.1596  0.3935
  134THF     C2 2218   2.165   3.311   0.966  0.3939 -0.1796  0.0669
  134THF     C3 2219   2.185   3.424   0.859 -0.0144  0.3061  0.0638
  134THF     O1 2220   2.213   3.540   0.939 -0.2648 -0.4909 -0.0968
  134THF     C4 2221   2.142   3.531   1.063 -0.3793  0.7141 -0.0456
  134THF     H1 2222   2.092   3.343   1.172 -1.9772 -0.7612 -1.1296
  134THF     H2 2223   2.270   3.371   1.148  0.7006 -0.6561 -3.4991
  134THF     H3 2224   2.078   3.247   0.946 -0.6258  1.5482 -1.2433
  134THF     H4 2225   2.243   3.235   0.957  0.1440 -0.4686  0.3101
  134THF     H5 2226   2.277   3.398   0.803 -0.3060  0.7588 -0.6347
  134THF     H6 2227   2.096   3.435   0.796  2.5233 -0.3554 -3.8915
  134THF     H7 2228   2.177   3.603   1.138 -1.8536  1.8636 -0.4362
  134THF     H8 2229   2.035   3.543   1.044 -0.4981 -0.1835  0.0507
  135THF     C1 2230   0.456   3.118   1.513 -0.4927  0.0505 -0.4736
  135THF     C2 2231   0.516   2.987   1.572  0.5586  0.4869 -0.3529
  135THF     C3 2232   0.536   2.910   1.442 -0.0764  0.0647 -0.4410
  135THF     O1 2233   0.420   2.937   1.362  0.0799  0.0628  0.2258
  135THF     C4 2234   0.360   3.057   1.407 -0.4523  0.6592  0.2293
  135THF     H1 2235   0.396   3.166   1.592 -1.8739 -0.4719 -1.1821
  135THF     H2 2236   0.533   3.184   1.471  1.0429 -1.8309 -0.6748
  135THF     H3 2237   0.432   2.940   1.626  0.9727 -0.8674 -0.8573
  135THF     H4 2238   0.612   2.991   1.626  0.4342 -2.3828  0.1602
  135THF     H5 2239   0.619   2.959   1.389  0.0445 -1.8269 -2.0248
  135THF     H6 2240   0.559   2.803   1.446  0.5798  0.2217  0.1142
  135THF     H7 2241   0.334   3.123   1.323 -0.4847 -0.1499 -0.4023
  135THF     H8 2242   0.266   3.033   1.459 -1.2700  2.0677 -0.5622
  136THF     C1 2243   0.324   1.350   0.992 -0.1237 -0.0083 -0.2681
  136THF     C2 2244   0.415   1.257   1.090 -0.5189 -0.3052 -0.0541
  136THF     C3 2245   0.494   1.170   0.981  0.1855 -0.1610  0.4677
  136THF     O1 2246   0.461   1.222   0.852  0.0456  0.4108 -0.1830
  136THF     C4 2247   0.427   1.365   0.875  0.1553  0.0015 -0.0225
  136THF     H1 2248   0.239   1.294   0.952  1.2066 -1.5986 -0.9600
  136THF     H2 2249   0.291   1.444   1.038 -0.9538  0.7399 -2.3137
  136THF     H3 2250   0.358   1.202   1.166 -1.9125  0.2039 -0.7038
  136THF     H4 2251   0.494   1.312   1.142  0.7022 -1.9018 -0.2094
  136THF     H5 2252   0.600   1.183   1.003  0.2826 -1.5150  0.9079
  136THF     H6 2253   0.479   1.061   0.974  0.1683 -0.1240 -0.0834
  136THF     H7 2254   0.524   1.410   0.902 -1.7193  4.4598 -0.3433
  136THF     H8 2255   0.391   1.412   0.783  1.2837 -0.6754 -0.8347
  137THF     C1 2256   1.621   1.334   3.586  0.4492 -0.2038 -0.4499
  137THF     C2 2257   1.599   1.397   3.726 -0.7468 -0.0345 -0.1550
  137THF     C3 2258   1.665   1.294   3.817  0.0762  0.3205 -0.5765
  137THF     O1 2259   1.784   1.255   3.749  0.0916  0.0103  0.0632
  137THF     C4 2260   1.760   1.276   3.611 -0.0166  0.3485  0.5903
  137THF     H1 2261   1.558   1.246   3.568  1.9464 -1.9303  2.3578
  137THF     H2 2262   1.611   1.403   3.502  1.6927 -0.7217 -1.0204
  137THF     H3 2263   1.495   1.414   3.757 -0.4763 -0.8560  1.2503
  137THF     H4 2264   1.652   1.493   3.736 -0.1158 -0.3674 -0.3188
  137THF     H5 2265   1.686   1.332   3.918  3.3731  0.0684 -1.1249
  137THF     H6 2266   1.607   1.201   3.818  1.0504 -0.3239 -1.7941
  137THF     H7 2267   1.835   1.342   3.568 -0.4953 -0.3816 -1.4087
  137THF     H8 2268   1.766   1.181   3.555  0.4513  0.9749 -0.4299
  138THF     C1 2269   1.201   1.615   3.418 -0.4712 -0.4147 -0.0095
  138THF     C2 2270   1.098   1.520   3.497 -0.5595  0.2325  0.4997
  138THF     C3 2271   1.178   1.391   3.509 -0.1301  0.2418  0.6685
  138THF     O1 2272   1.253   1.381   3.392  0.4972  0.4519 -0.0621
  138THF     C4 2273   1.292   1.513   3.344  0.3436 -0.1017 -0.5568
  138THF     H1 2274   1.158   1.686   3.347  2.4093  1.5604  0.1544
  138THF     H2 2275   1.263   1.674   3.485  0.8766 -1.8103 -0.0155
  138THF     H3 2276   1.006   1.523   3.437  0.3336  0.6103 -0.8903
  138THF     H4 2277   1.067   1.567   3.591  1.4917  0.2828  1.1616
  138THF     H5 2278   1.239   1.406   3.599 -0.6557 -0.5235  1.1591
  138THF     H6 2279   1.121   1.298   3.520 -1.0237  0.7244  0.2258
  138THF     H7 2280   1.399   1.533   3.360  0.6711 -2.3822  0.2150
  138THF     H8 2281   1.265   1.514   3.238 -0.4883  1.2731 -0.3434
  139THF     C1 2282   1.961   1.231   0.938 -0.7550  0.5823 -0.3938
  139THF     C2 2283   2.060   1.199   1.056 -0.3811  0.5045 -0.0760
  139THF     C3 2284   2.074   1.050   1.051  0.2667 -0.2444  0.0451
  139THF     O1 2285   1.949   1.003   0.990 -0.0955 -0.3415  0.0509
  139THF     C4 2286   1.935   1.092   0.878 -0.3716 -0.8238 -0.1082
  139THF     H1 2287   1.874   1.288   0.974 -1.8416 -1.7034  0.6940
  139THF     H2 2288   2.007   1.293   0.860  0.7109 -1.4112 -1.1689
  139THF     H3 2289   2.022   1.230   1.154 -2.8480 -1.3508 -0.4057
  139THF     H4 2290   2.158   1.244   1.038  0.1967  0.0705  1.7848
  139THF     H5 2291   2.161   1.026   0.989 -0.2753  0.0408 -0.8370
  139THF     H6 2292   2.084   0.996   1.146  1.8368  1.8822  1.1310
  139THF     H7 2293   2.005   1.065   0.798  0.0767 -0.9001  0.3070
  139THF     H8 2294   1.834   1.094   0.836  0.2385 -0.9409 -1.5964
  140THF     C1 2295   1.132   1.886   0.999 -0.1839 -0.2202  0.6202
  140THF     C2 2296   1.288   1.858   1.005 -0.4831 -0.6650  0.8489
  140THF     C3 2297   1.300   1.769   1.133  0.3351  0.3511 -0.0460
  140THF     O1 2298   1.197   1.819   1.216  0.3339  0.6231  0.1864
  140THF     C4 2299   1.082   1.845   1.133 -0.1255  0.4268 -0.9566
  140THF     H1 2300   1.103   1.991   0.988  0.2417 -0.1508  0.1521
  140THF     H2 2301   1.082   1.827   0.922  0.0419  0.9157 -0.4216
  140THF     H3 2302   1.349   1.949   1.013  1.2955 -1.6080 -1.3158
  140THF     H4 2303   1.332   1.817   0.913 -0.2379  0.0611  0.6383
  140THF     H5 2304   1.272   1.665   1.112 -1.7827  1.4887 -3.1571
  140THF     H6 2305   1.399   1.778   1.180  0.7158  0.3714 -0.8368
  140THF     H7 2306   1.025   1.752   1.122 -1.2797  1.1433 -1.0127
  140THF     H8 2307   1.021   1.921   1.182 -1.4343 -1.3823  0.3121
  141THF     C1 2308   0.095   2.630   1.480 -0.1243 -0.1302 -0.5195
  141THF     C2 2309   0.239   2.573   1.481  0.0700 -0.2091 -0.6815
  141THF     C3 2310   0.202   2.420   1.473 -0.0905  0.0298  0.2599
  141THF     O1 2311   0.083   2.408   1.554 -0.9296  0.5180 -0.1262
  141THF     C4 2312   0.002   2.525   1.536 -0.0865 -0.3832 -0.4083
  141THF     H1 2313   0.089   2.729   1.526 -0.2414 -0.8151  0.9643
  141THF     H2 2314   0.065   2.647   1.376 -0.8701 -1.9228 -0.6193
  141THF     H3 2315   0.298   2.601   1.569 -0.6746 -0.4099 -0.1215
  141THF     H4 2316   0.297   2.613   1.397  2.3243  0.0380  0.9393
  141THF     H5 2317   0.173   2.386   1.372  2.5186 -0.5708 -0.3319
  141THF     H6 2318   0.276   2.345   1.505 -1.2874 -1.1362  0.3250
  141THF     H7 2319  -0.087   2.502   1.476 -1.8469  0.9471  1.6434
  141THF     H8 2320  -0.044   2.551   1.632  2.3277  1.6360  0.2489
  142THF     C1 2321   2.627   3.317   0.991  0.1035  0.0931 -0.5088
  142THF     C2 2322   2.719   3.339   1.112 -0.0385 -0.2126 -0.2608
  142THF     C3 2323   2.806   3.213   1.098  1.1703 -0.2284 -0.4484
  142THF     O1 2324   2.711   3.110   1.067 -0.1318 -0.3769  0.5326
  142THF     C4 2325   2.614   3.167   0.976  0.1882 -0.3300 -0.4752
  142THF     H1 2326   2.527   3.361   1.002  0.0194 -0.0562 -0.6816
  142THF     H2 2327   2.676   3.350   0.898 -0.9532  0.3673 -0.9790
  142THF     H3 2328   2.649   3.332   1.196  2.4693  2.5389  2.1748
  142THF     H4 2329   2.768   3.436   1.128 -1.7382  0.0071  4.3908
  142THF     H5 2330   2.882   3.229   1.021  2.0741 -0.2179  0.4484
  142THF     H6 2331   2.864   3.191   1.189 -0.0736 -1.0037  0.1805
  142THF     H7 2332   2.636   3.143   0.871 -0.9497  1.6003 -1.1739
  142THF     H8 2333   2.511   3.133   0.991 -0.2438  1.0808 -0.1725
  143THF     C1 2334   0.999   1.013   0.826 -0.1420  0.0689 -0.1246
  143THF     C2 2335   1.106   1.016   0.707  0.0203  0.5327 -0.5342
  143THF     C3 2336   1.022   1.071   0.581  0.0079  0.9880  0.5007
  143THF     O1 2337   0.894   1.096   0.642 -0.1502  0.2171  0.1655
  143THF     C4 2338   0.913   1.124   0.783 -0.3065 -0.0840  0.5676
  143THF     H1 2339   0.939   0.922   0.827  0.8398 -0.6302 -1.8082
  143THF     H2 2340   1.045   1.032   0.924 -0.1945 -1.0453  0.1239
  143THF     H3 2341   1.150   0.919   0.682 -0.5903  0.4378 -1.2791
  143THF     H4 2342   1.190   1.084   0.722  0.0515  0.5830 -0.9226
  143THF     H5 2343   1.066   1.160   0.534  0.2781  0.2172 -0.7417
  143THF     H6 2344   0.996   0.995   0.506  2.0655 -1.3162  2.0589
  143THF     H7 2345   0.965   1.220   0.791  0.4267 -0.4062 -0.2519
  143THF     H8 2346   0.817   1.134   0.836 -0.4549 -2.3491  0.7799
  144THF     C1 2347   1.029   3.099   1.532  0.1090 -0.1942  0.1922
  144THF     C2 2348   0.903   3.137   1.452 -0.7442 -0.5275  0.1114
  144THF     C3 2349   0.950   3.172   1.308 -0.1571 -0.5034 -0.8362
  144THF     O1 2350   1.091   3.169   1.323  0.8214 -0.3202 -0.2026
  144THF     C4 2351   1.128   3.069   1.421 -0.2819 -0.0507  0.0286
  144THF     H1 2352   1.062   3.188   1.587 -0.5125  0.4501 -0.4838
  144THF     H2 2353   1.011   3.019   1.606  0.0953 -1.5207 -1.2300
  144THF     H3 2354   0.865   3.229   1.497  0.0217 -0.7769  1.2833
  144THF     H4 2355   0.823   3.062   1.441  0.5124 -2.0439  1.1836
  144THF     H5 2356   0.919   3.094   1.237 -0.1103 -1.0998 -0.2131
  144THF     H6 2357   0.920   3.266   1.260  0.2527 -0.0959 -0.3024
  144THF     H7 2358   1.115   2.973   1.371 -1.7192  1.2108 -2.0885
  144THF     H8 2359   1.232   3.081   1.454 -0.3713  3.6120 -0.7450
  145THF     C1 2360   2.613   1.070   0.375 -0.2704 -0.5614  0.1736
  145THF     C2 2361   2.760   1.117   0.329 -0.1421 -0.2568 -0.5037
  145THF     C3 2362   2.835   1.085   0.461  0.3334 -0.5063  0.7161
  145THF     O1 2363   2.752   1.020   0.552 -0.1225 -0.2517 -0.4349
  145THF     C4 2364   2.650   0.957   0.475  0.7911  0.0708  0.1855
  145THF     H1 2365   2.557   1.148   0.427 -2.1727 -0.6904 -1.6290
  145THF     H2 2366   2.561   1.029   0.288 -0.4608 -0.9719  0.4848
  145THF     H3 2367   2.773   1.222   0.302  2.1952 -0.6320 -0.9481
  145THF     H4 2368   2.794   1.059   0.242 -1.4217 -0.3386 -0.9576
  145THF     H5 2369   2.927   1.033   0.432  3.3112  3.3214  2.8022
  145THF     H6 2370   2.883   1.178   0.493  0.9861 -0.6133  0.0302
  145THF     H7 2371   2.688   0.879   0.408  0.2184  0.0569 -0.1251
  145THF     H8 2372   2.566   0.919   0.534  0.8153 -1.4126 -0.7238
  146THF     C1 2373   1.731   3.433   0.950 -0.7262  0.2313 -0.0870
  146THF     C2 2374   1.778   3.405   1.096  0.3016  0.4085  1.3467
  146THF     C3 2375   1.680   3.294   1.149 -0.2039  0.4299 -0.2642
  146THF     O1 2376   1.626   3.237   1.032  0.0326 -0.2225 -0.3273
  146THF     C4 2377   1.598   3.355   0.943 -0.1209 -0.5149  0.9848
  146THF     H1 2378   1.726   3.537   0.917  1.6347  0.2652 -0.4314
  146THF     H2 2379   1.805   3.398   0.876 -0.5417  2.0726 -0.7816
  146THF     H3 2380   1.786   3.494   1.159  0.1750  1.8416 -0.6078
  146THF     H4 2381   1.881   3.368   1.101 -0.2612 -1.3533  0.2794
  146THF     H5 2382   1.724   3.215   1.212 -1.8255 -0.2479  0.0599
  146THF     H6 2383   1.597   3.339   1.205 -1.3595 -1.1119 -0.6975
  146THF     H7 2384   1.573   3.318   0.843  3.1073 -0.0918 -0.0400
  146THF     H8 2385   1.519   3.419   0.985  0.7676  0.3990  1.2919
  147THF     C1 2386   0.226   1.434   1.406  0.0666 -0.3187 -0.3886
  147THF     C2 2387   0.208   1.442   1.561 -0.5865  0.4208 -0.3752
  147THF     C3 2388   0.053   1.456   1.581  0.6007 -0.0724  0.2426
  147THF     O1 2389   0.002   1.459   1.443 -0.3348  0.4461  0.0070
  147THF     C4 2390   0.111   1.521   1.365 -0.1577  0.1260 -0.1652
  147THF     H1 2391   0.330   1.459   1.381  0.3925 -0.4545  0.7860
  147THF     H2 2392   0.197   1.332   1.377  0.0233 -0.8152  1.3262
  147THF     H3 2393   0.261   1.529   1.600 -0.9049  1.3838 -2.0545
  147THF     H4 2394   0.241   1.351   1.613  1.1029  1.9264  1.2705
  147THF     H5 2395   0.005   1.378   1.642 -1.6954  0.4649 -0.8165
  147THF     H6 2396   0.035   1.544   1.644  1.4307 -1.8554  3.0428
  147THF     H7 2397   0.073   1.518   1.262 -0.5974  0.2132 -0.0057
  147THF     H8 2398   0.122   1.627   1.391  1.9181 -0.2180  0.4558
  148THF     C1 2399   2.128   0.608   1.509 -0.4602  0.1645  0.2158
  148THF     C2 2400   2.103   0.763   1.492  0.2964 -0.9807 -0.5391
  148THF     C3 2401   2.227   0.821   1.555 -0.0679 -0.7187  0.0908
  148THF     O1 2402   2.318   0.716   1.589 -0.3715  0.0612  0.2744
  148THF     C4 2403   2.282   0.602   1.506 -0.8245 -0.4969  0.2782
  148THF     H1 2404   2.089   0.572   1.605 -0.6123  0.1684  0.1570
  148THF     H2 2405   2.087   0.541   1.432 -0.2403 -2.1301  2.0578
  148THF     H3 2406   2.013   0.776   1.553  0.3530  0.3796 -0.7187
  148THF     H4 2407   2.095   0.797   1.388 -0.3785 -3.6135 -1.3834
  148THF     H5 2408   2.276   0.887   1.481  0.7510  0.5371  1.7138
  148THF     H6 2409   2.207   0.880   1.645 -0.0180 -1.8145  0.8266
  148THF     H7 2410   2.328   0.615   1.407 -0.1751  1.6493  0.8271
  148THF     H8 2411   2.320   0.506   1.543  1.2747  0.0860 -0.2736
  149THF     C1 2412   0.343   2.780   0.643  0.2412  0.3172 -0.5624
  149THF     C2 2413   0.424   2.820   0.517 -0.3400 -0.0769  0.4022
  149THF     C3 2414   0.528   2.703   0.524 -0.6253 -0.4593 -0.0609
  149THF     O1 2415   0.560   2.694   0.658 -0.0782  0.0940 -0.1415
  149THF     C4 2416   0.440   2.698   0.736 -0.1829 -0.1380 -0.4522
  149THF     H1 2417   0.293   2.867   0.686  0.7103 -0.0553  0.7487
  149THF     H2 2418   0.257   2.721   0.611  0.7419 -0.4729 -0.4549
  149THF     H3 2419   0.472   2.914   0.546 -1.0573  0.6956 -0.8986
  149THF     H4 2420   0.356   2.831   0.432 -0.6264  0.4025  0.6910
  149THF     H5 2421   0.500   2.602   0.491 -0.8219  0.0934 -1.6331
  149THF     H6 2422   0.620   2.730   0.471 -1.2619 -1.3295 -1.6468
  149THF     H7 2423   0.400   2.601   0.769  1.9898 -1.3633 -1.3361
  149THF     H8 2424   0.462   2.744   0.834 -0.1176  0.8233 -0.9165
  150THF     C1 2425   0.361   2.839   2.290 -0.3845 -1.2471 -0.1788
  150THF     C2 2426   0.310   2.838   2.439 -0.3379 -0.2500  0.2520
  150THF     C3 2427   0.454   2.884   2.509 -0.1040 -0.4603 -0.2025
  150THF     O1 2428   0.497   2.997   2.421  0.1108 -0.5762  0.1514
  150THF     C4 2429   0.433   2.979   2.288 -0.4164  0.1024 -0.0962
  150THF     H1 2430   0.428   2.753   2.277  0.8998 -0.1764 -0.8343
  150THF     H2 2431   0.278   2.825   2.220 -0.6692 -0.3640 -0.0202
  150THF     H3 2432   0.286   2.735   2.469 -1.4742 -0.6799 -2.0259
  150THF     H4 2433   0.229   2.909   2.457 -0.9929 -1.4073  1.9135
  150THF     H5 2434   0.439   2.908   2.615  1.0539  0.2533 -0.1982
  150THF     H6 2435   0.519   2.795   2.503  0.7384 -0.0266  2.0877
  150THF     H7 2436   0.363   3.061   2.273 -1.5832 -0.8623  0.0119
  150THF     H8 2437   0.513   2.983   2.213 -1.5175 -0.8423 -1.3423
  151THF     C1 2438   0.393   2.238   3.341 -0.0930  0.3127  0.2510
  151THF     C2 2439   0.307   2.297   3.453 -0.9547  0.3595  0.0423
  151THF     C3 2440   0.231   2.406   3.373  0.3048  0.1005  0.2736
  151THF     O1 2441   0.321   2.449   3.272  0.5098  0.2180  0.6345
  151THF     C4 2442   0.443   2.370   3.285  0.1695 -0.4940 -0.0733
  151THF     H1 2443   0.468   2.178   3.393 -1.0140 -0.7930  0.3224
  151THF     H2 2444   0.331   2.179   3.272 -0.3188  0.9777 -0.1179
  151THF     H3 2445   0.370   2.333   3.535  0.1502 -0.7196 -0.3146
  151THF     H4 2446   0.249   2.217   3.500 -0.8534 -0.0751 -0.5605
  151THF     H5 2447   0.138   2.363   3.334 -0.5536  1.2746  0.9715
  151THF     H6 2448   0.201   2.490   3.438 -4.3680 -1.8150  0.7529
  151THF     H7 2449   0.498   2.371   3.190  1.2644  0.1225  0.5672
  151THF     H8 2450   0.506   2.418   3.360 -2.0247  1.6151  0.4762
  152THF     C1 2451   2.435   1.926   2.872  0.5768  0.1551 -0.3963
  152THF     C2 2452   2.339   1.817   2.898 -0.0304 -0.0057  0.2956
  152THF     C3 2453   2.247   1.891   3.003 -0.0271 -0.2606 -0.6029
  152THF     O1 2454   2.333   1.961   3.090 -0.0392 -0.4016 -0.0884
  152THF     C4 2455   2.455   1.979   3.018  0.4087 -0.4381 -0.0159
  152THF     H1 2456   2.533   1.896   2.833  0.9172 -0.1640  0.6901
  152THF     H2 2457   2.391   1.995   2.800  0.5150 -0.4108 -0.9100
  152THF     H3 2458   2.370   1.727   2.951 -1.0669 -1.2797 -1.2293
  152THF     H4 2459   2.290   1.779   2.808  0.1834  2.0424 -0.7198
  152THF     H5 2460   2.186   1.967   2.953 -0.0504  0.2980  0.2462
  152THF     H6 2461   2.191   1.827   3.072  0.3384  0.2376  0.1730
  152THF     H7 2462   2.489   2.083   3.008  1.2259 -0.4139  2.6410
  152THF     H8 2463   2.518   1.913   3.079  1.3856  0.8578  0.4120
  153THF     C1 2464   1.553   0.277   2.859 -0.4277 -0.2287  0.1621
  153THF     C2 2465   1.463   0.403   2.829  0.0898  0.9423  0.1696
  153THF     C3 2466   1.333   0.332   2.772 -1.0796 -0.2606  0.2792
  153THF     O1 2467   1.395   0.227   2.684  0.0228  0.3775 -0.3701
  153THF     C4 2468   1.534   0.208   2.722 -0.4576  0.5006  0.7015
  153THF     H1 2469   1.654   0.305   2.889 -0.6629  2.2442 -1.2371
  153THF     H2 2470   1.525   0.207   2.939  1.3140  4.2642  5.0507
  153THF     H3 2471   1.509   0.465   2.750  0.5797 -2.4888 -2.3500
  153THF     H4 2472   1.442   0.464   2.917 -2.9076 -0.8146  0.7597
  153THF     H5 2473   1.279   0.279   2.852 -0.3808  3.4701  3.3858
  153THF     H6 2474   1.258   0.383   2.710 -0.5408  0.2026  0.0041
  153THF     H7 2475   1.549   0.100   2.727  0.7901  0.5148 -1.5982
  153THF     H8 2476   1.599   0.253   2.645 -0.2656 -0.4640  0.2969
  154THF     C1 2477   0.632   0.947   2.376  0.2796  0.2475 -0.1793
  154THF     C2 2478   0.618   0.859   2.252  0.2663  0.7599  0.0829
  154THF     C3 2479   0.488   0.770   2.280  0.4363 -0.2200 -0.1779
  154THF     O1 2480   0.461   0.800   2.417  0.1818 -0.0906 -0.0561
  154THF     C4 2481   0.584   0.845   2.481  1.1639 -0.0392 -0.3298
  154THF     H1 2482   0.730   0.989   2.401  0.4702 -1.5616  2.2153
  154THF     H2 2483   0.567   1.035   2.374  0.3847  0.3164 -0.8795
  154THF     H3 2484   0.700   0.791   2.227 -0.9968 -0.4665 -0.7625
  154THF     H4 2485   0.600   0.920   2.162  0.7294  0.9026  0.0850
  154THF     H5 2486   0.402   0.792   2.216 -2.2100 -2.3195  2.4939
  154THF     H6 2487   0.508   0.662   2.274 -0.8745 -0.3651 -2.4417
  154THF     H7 2488   0.560   0.871   2.585  0.3523  0.4212 -0.6254
  154THF     H8 2489   0.647   0.757   2.497  2.2323  1.2694  3.3560
  155THF     C1 2490   2.218   2.329   2.880 -0.1211  0.2113  0.1592
  155THF     C2 2491   2.090   2.267   2.802 -0.1372 -0.3603  0.4429
  155THF     C3 2492   2.004   2.393   2.782 -0.6643  0.3363 -0.2425
  155THF     O1 2493   2.108   2.492   2.748 -0.7366 -0.6681 -0.0735
  155THF     C4 2494   2.237   2.466   2.810  0.6640 -0.3888  0.2318
  155THF     H1 2495   2.202   2.324   2.988 -0.9982  1.4893  0.1048
  155THF     H2 2496   2.311   2.273   2.863  0.2928  0.6618  0.9312
  155THF     H3 2497   2.029   2.202   2.866 -1.8631 -0.2900 -1.0832
  155THF     H4 2498   2.105   2.231   2.700 -1.0811  1.1419 -0.2534
  155THF     H5 2499   1.934   2.389   2.698  0.5181 -1.2270 -1.1812
  155THF     H6 2500   1.953   2.422   2.874  0.9075  5.9408 -0.9762
  155THF     H7 2501   2.311   2.490   2.732 -0.5278  1.6697 -0.3164
  155THF     H8 2502   2.260   2.539   2.889  0.8865 -1.0117  0.7437
  156THF     C1 2503   0.205   0.672   3.069 -0.1771  0.3389 -0.6817
  156THF     C2 2504   0.294   0.621   3.193  0.6844  0.4779 -0.2246
  156THF     C3 2505   0.195   0.544   3.284  0.2932  0.1475  0.5943
  156THF     O1 2506   0.063   0.610   3.259 -0.0790  0.0430 -0.1261
  156THF     C4 2507   0.057   0.634   3.117 -0.1368 -1.0509  0.3685
  156THF     H1 2508   0.217   0.778   3.046  2.2372  0.2825  0.1977
  156THF     H2 2509   0.238   0.612   2.984  1.0360 -1.1526  0.8003
  156THF     H3 2510   0.349   0.703   3.240  2.4241  0.3015 -1.8759
  156THF     H4 2511   0.373   0.549   3.169 -0.8319 -2.0061  1.9376
  156THF     H5 2512   0.188   0.437   3.260 -3.4793  0.3515  0.4552
  156THF     H6 2513   0.215   0.540   3.392 -1.8107  0.0045  0.9911
  156THF     H7 2514   0.029   0.536   3.074  0.4736 -0.2705 -1.8837
  156THF     H8 2515  -0.029   0.698   3.093  0.9317 -1.1073 -4.0146
  157THF     C1 2516   0.038   0.011   3.546 -0.0074  0.8676  0.3559
  157THF     C2 2517  -0.111   0.003   3.596 -0.0369 -0.9590 -0.0714
  157THF     C3 2518  -0.102   0.105   3.721  0.5967  0.8693 -0.6358
  157THF     O1 2519   0.016   0.185   3.698  0.2991  0.4774  0.3991
  157THF     C4 2520   0.062   0.158   3.564  0.7259  0.2160  0.4476
  157THF     H1 2521   0.098  -0.049   3.616 -0.1981  0.5480  0.2467
  157THF     H2 2522   0.070  -0.015   3.444  1.0968  1.9410  0.4231
  157THF     H3 2523  -0.147  -0.098   3.614  0.0550 -1.2076 -1.2264
  157THF     H4 2524  -0.177   0.040   3.516  0.1867  1.1333  0.6672
  157THF     H5 2525  -0.189   0.168   3.742 -2.0176 -2.8982  0.3474
  157THF     H6 2526  -0.083   0.042   3.809 -0.5082 -0.1186 -1.0787
  157THF     H7 2527  -0.004   0.217   3.498  0.8019  0.6696  0.7768
  157THF     H8 2528   0.167   0.186   3.555  0.7568  0.1228  0.5192
  158THF     C1 2529   2.844   1.996   3.130  0.4167 -0.0121  0.2870
  158THF     C2 2530   2.937   2.103   3.191 -0.2420 -0.6446 -0.5960
  158THF     C3 2531   2.852   2.230   3.169 -0.3265 -0.7465 -0.2256
  158THF     O1 2532   2.783   2.206   3.042 -0.1271  0.2918 -0.2065
  158THF     C4 2533   2.811   2.068   3.002 -0.5854 -0.0558 -0.3531
  158THF     H1 2534   2.901   1.904   3.113 -1.1539 -1.1637  1.0456
  158THF     H2 2535   2.761   1.971   3.198  0.1318 -0.7378 -0.3229
  158THF     H3 2536   3.029   2.125   3.136 -0.6619  1.2886 -0.5551
  158THF     H4 2537   2.950   2.089   3.298 -0.2933 -1.1641 -0.6575
  158THF     H5 2538   2.770   2.244   3.240 -1.3352 -2.3701 -1.0527
  158THF     H6 2539   2.906   2.326   3.168 -1.0292 -0.3581 -1.2940
  158THF     H7 2540   2.725   2.031   2.944 -1.9294  0.1571  1.4377
  158THF     H8 2541   2.893   2.071   2.929 -2.6773  0.6331 -2.7637
  159THF     C1 2542   0.177   1.907   3.112 -0.4355  0.0672  0.8228
  159THF     C2 2543   0.077   1.991   3.025  0.0075 -0.4270  0.5033
  159THF     C3 2544  -0.068   1.960   3.078 -0.6760 -0.0244 -0.3973
  159THF     O1 2545  -0.049   1.853   3.173  0.1326  0.6279 -0.0705
  159THF     C4 2546   0.085   1.860   3.230 -0.3992 -0.4326  0.5075
  159THF     H1 2547   0.204   1.814   3.060  0.0557  0.7919 -0.2391
  159THF     H2 2548   0.274   1.955   3.126 -0.4991 -0.2468  2.4035
  159THF     H3 2549   0.089   1.975   2.917 -1.3718 -1.0719  0.4340
  159THF     H4 2550   0.105   2.097   3.032  0.8292 -0.7309  2.1686
  159THF     H5 2551  -0.118   2.041   3.132  1.3495  0.5478  0.6791
  159THF     H6 2552  -0.133   1.927   2.996 -0.7961 -2.4106  0.6218
  159THF     H7 2553   0.091   1.939   3.306  2.8697  1.7389 -1.8220
  159THF     H8 2554   0.125   1.762   3.257 -1.7139 -0.8349  1.0202
  160THF     C1 2555   2.555   1.976   3.454  0.4224  0.2472 -0.1265
  160THF     C2 2556   2.694   1.912   3.471 -0.9298 -0.2853  0.0624
  160THF     C3 2557   2.670   1.804   3.580  0.1051  0.2487  0.2511
  160THF     O1 2558   2.583   1.873   3.675  0.4463 -0.4296  0.4460
  160THF     C4 2559   2.480   1.933   3.587 -0.0920 -0.6909  0.8286
  160THF     H1 2560   2.573   2.084   3.441 -0.1544  0.3782  0.1396
  160THF     H2 2561   2.506   1.932   3.366  1.2290  0.1129 -0.5147
  160THF     H3 2562   2.769   1.988   3.498  0.0212 -1.2353  0.1415
  160THF     H4 2563   2.741   1.854   3.390 -1.2914 -0.3066 -0.1303
  160THF     H5 2564   2.624   1.713   3.539 -3.6148  1.2204  1.9969
  160THF     H6 2565   2.761   1.774   3.633  0.4445  0.1504 -0.3852
  160THF     H7 2566   2.402   1.862   3.557 -0.6751  0.5744 -0.7789
  160THF     H8 2567   2.428   2.013   3.640  1.0376  0.7280 -0.1433
  161THF     C1 2568   2.685   0.195   3.240  0.5241 -0.4230 -0.2527
  161THF     C2 2569   2.722   0.148   3.387 -0.1424  0.1780 -0.8111
  161THF     C3 2570   2.819   0.029   3.348 -0.1653  0.4268 -0.4587
  161THF     O1 2571   2.807   0.009   3.213 -0.3204  0.1630  0.8674
  161THF     C4 2572   2.683   0.060   3.169  0.0490 -0.7322  0.0291
  161THF     H1 2573   2.590   0.246   3.219  1.3182  0.6685 -1.2486
  161THF     H2 2574   2.761   0.263   3.200  1.8625 -0.7316  1.6973
  161THF     H3 2575   2.635   0.114   3.445  0.8774 -0.0477  0.6224
  161THF     H4 2576   2.769   0.231   3.440  0.8185 -0.3858 -0.7639
  161THF     H5 2577   2.926   0.053   3.353  0.5834 -2.3407 -2.1119
  161THF     H6 2578   2.784  -0.062   3.398  1.0365  0.8118  1.1273
  161THF     H7 2579   2.683   0.064   3.060 -0.5204 -2.8936 -0.0683
  161THF     H8 2580   2.595   0.000   3.194 -0.3140 -1.0511 -1.9646
  162THF     C1 2581   1.616   0.409   1.042 -0.3991  0.1110  0.3157
  162THF     C2 2582   1.479   0.337   1.010  0.2349  0.2658 -0.3854
  162THF     C3 2583   1.453   0.246   1.132 -0.5364  0.1803 -0.0333
  162THF     O1 2584   1.548   0.299   1.231 -0.4362 -0.4503  0.0041
  162THF     C4 2585   1.671   0.336   1.162 -0.7834 -0.2972  0.0280
  162THF     H1 2586   1.675   0.407   0.949 -0.7957  0.4310  0.0569
  162THF     H2 2587   1.603   0.516   1.061 -0.0314  0.2518 -0.1918
  162THF     H3 2588   1.495   0.277   0.920  0.1361  1.5280 -1.2650
  162THF     H4 2589   1.402   0.409   0.980 -0.5395 -0.2134  0.4134
  162THF     H5 2590   1.353   0.249   1.177  0.2860  1.9403  1.7803
  162THF     H6 2591   1.474   0.141   1.111 -0.8421  0.1909 -0.3936
  162THF     H7 2592   1.733   0.399   1.227  2.6395 -4.0223  0.5722
  162THF     H8 2593   1.725   0.248   1.126  2.4042  1.3705  0.5229
  163THF     C1 2594   1.315   0.524   0.586 -0.0045  0.2723  0.4450
  163THF     C2 2595   1.376   0.419   0.677  0.6061 -0.3562  0.2435
  163THF     C3 2596   1.263   0.335   0.720  0.5588 -0.1940 -0.1361
  163THF     O1 2597   1.166   0.438   0.742 -0.5787  0.3328  0.2040
  163THF     C4 2598   1.169   0.508   0.615  0.4700 -0.2275 -0.1844
  163THF     H1 2599   1.348   0.625   0.611 -0.9897  0.0233  2.8258
  163THF     H2 2600   1.336   0.498   0.481 -1.8723 -0.5723  0.2730
  163THF     H3 2601   1.419   0.471   0.763 -1.3319  0.9049  0.4772
  163THF     H4 2602   1.458   0.362   0.631  0.8544  0.6905 -0.6551
  163THF     H5 2603   1.231   0.256   0.650  0.3137 -0.0449 -0.1932
  163THF     H6 2604   1.289   0.277   0.809 -2.0831 -2.3981 -0.7507
  163THF     H7 2605   1.107   0.452   0.543 -1.0839  1.5713 -0.3061
  163THF     H8 2606   1.123   0.607   0.622  2.2138  0.5892 -0.2128
  164THF     C1 2607   2.268   2.943   2.321 -0.2530 -0.2947 -0.0347
  164THF     C2 2608   2.361   2.864   2.424  0.3575  0.0363  0.5363
  164THF     C3 2609   2.432   2.983   2.492 -0.8529 -0.3921 -0.1073
  164THF     O1 2610   2.465   3.064   2.380 -0.3769  0.4305 -0.0855
  164THF     C4 2611   2.380   3.033   2.258 -0.0738 -0.3242 -0.2084
  164THF     H1 2612   2.221   2.877   2.248  1.3424 -0.9986 -0.4601
  164THF     H2 2613   2.182   2.998   2.361  1.3598  0.7581  2.1171
  164THF     H3 2614   2.420   2.782   2.381  0.8512  0.2853  0.7477
  164THF     H4 2615   2.293   2.818   2.497 -0.9170  1.0230 -0.0055
  164THF     H5 2616   2.362   3.030   2.563 -0.7125 -0.3932  0.0320
  164THF     H6 2617   2.529   2.962   2.538  0.6105  1.3610 -2.2801
  164THF     H7 2618   2.350   3.125   2.208 -0.5813 -0.7298 -0.6549
  164THF     H8 2619   2.441   2.977   2.186  0.2766 -0.2363  0.0201
  165THF     C1 2620   3.177   2.166   0.000  0.0079 -1.2144  0.5246
  165THF     C2 2621   3.067   2.215  -0.107 -0.2188  0.2843  0.3187
  165THF     C3 2622   3.158   2.244  -0.241  0.7005  0.0153  0.1181
  165THF     O1 2623   3.291   2.232  -0.194 -0.3409  0.0241 -0.2917
  165THF     C4 2624   3.303   2.138  -0.090  0.1629 -0.2254 -0.2151
  165THF     H1 2625   3.189   2.252   0.067  1.3336 -0.7260 -0.3178
  165THF     H2 2626   3.139   2.082   0.060  0.9053 -1.5643  0.6129
  165THF     H3 2627   3.014   2.302  -0.066  1.1711  1.8355 -1.0872
  165THF     H4 2628   3.002   2.130  -0.128  0.9968 -0.5280 -0.2427
  165THF     H5 2629   3.143   2.174  -0.324 -0.7216 -0.0644  0.4363
  165THF     H6 2630   3.136   2.340  -0.289 -1.6961  0.6763  2.4677
  165THF     H7 2631   3.293   2.033  -0.121 -1.0646 -0.5260  1.1337
  165THF     H8 2632   3.399   2.150  -0.036 -0.5579  1.5559  0.7122
  166THF     C1 2633   0.869   1.372   3.165  0.5047 -0.1720  0.0910
  166THF     C2 2634   1.020   1.363   3.125 -0.4268  0.7963 -0.6453
  166THF     C3 2635   1.033   1.499   3.058 -0.2735 -0.1288 -0.8996
  166THF     O1 2636   0.955   1.591   3.134  0.1378  0.0941  0.0896
  166THF     C4 2637   0.846   1.522   3.190 -0.0495  0.3405  0.1328
  166THF     H1 2638   0.798   1.344   3.086 -0.9808  2.1024  0.5741
  166THF     H2 2639   0.838   1.319   3.256 -1.2616  0.9076  0.1337
  166THF     H3 2640   1.037   1.284   3.050 -0.8128 -0.5123  0.6333
  166THF     H4 2641   1.091   1.350   3.207  0.2873 -1.8793 -1.6472
  166THF     H5 2642   1.135   1.538   3.051 -0.5761  0.8954  0.1508
  166THF     H6 2643   0.998   1.491   2.955 -3.8109 -0.4479  0.2713
  166THF     H7 2644   0.850   1.542   3.298 -1.5815  1.9847 -0.0849
  166THF     H8 2645   0.748   1.555   3.153  0.2001 -0.2161 -1.0340
  167THF     C1 2646   1.859   0.551   2.851  0.4113 -0.2037 -0.1837
  167THF     C2 2647   1.780   0.654   2.947  0.2827  0.4074  0.3765
  167THF     C3 2648   1.800   0.770   2.855  0.4933 -0.3886 -0.0472
  167THF     O1 2649   1.933   0.776   2.808 -0.2689  0.4653 -0.0277
  167THF     C4 2650   1.967   0.632   2.784  0.3713  0.1170 -0.1879
  167THF     H1 2651   1.902   0.467   2.906 -0.1627  0.9728  2.1573
  167THF     H2 2652   1.788   0.508   2.778 -1.3608  0.3154  1.1942
  167THF     H3 2653   1.817   0.665   3.049  0.8213 -0.2431  0.2576
  167THF     H4 2654   1.675   0.623   2.950  0.4178 -0.1557 -0.4183
  167THF     H5 2655   1.736   0.769   2.766 -1.2916  2.2945  1.1297
  167THF     H6 2656   1.784   0.871   2.894  1.8085 -0.0462 -0.3635
  167THF     H7 2657   1.972   0.614   2.676 -0.5672  0.2256 -0.2546
  167THF     H8 2658   2.062   0.607   2.832  1.4115  0.4113 -2.0492
  168THF     C1 2659   1.325   1.627   0.707 -0.6078  0.2694 -0.5677
  168THF     C2 2660   1.346   1.501   0.798  0.3925 -0.1857 -0.1919
  168THF     C3 2661   1.294   1.380   0.716 -0.1949 -0.6157  0.1236
  168THF     O1 2662   1.240   1.444   0.596 -0.4797  0.0297 -0.2047
  168THF     C4 2663   1.323   1.557   0.570 -0.2220  0.4326 -0.0802
  168THF     H1 2664   1.227   1.666   0.736 -0.4325 -1.5100  2.5366
  168THF     H2 2665   1.404   1.703   0.706 -0.3809  0.0359 -0.0209
  168THF     H3 2666   1.285   1.519   0.887 -1.4134 -2.2784 -0.9766
  168THF     H4 2667   1.446   1.487   0.840 -0.5419  0.8549  2.5049
  168THF     H5 2668   1.378   1.315   0.691  0.8593  0.1114  1.7177
  168THF     H6 2669   1.215   1.326   0.769  0.7078 -2.2953 -0.2098
  168THF     H7 2670   1.424   1.525   0.544 -0.7152  0.7873 -2.5843
  168THF     H8 2671   1.282   1.612   0.484  0.0400 -0.0930 -0.5494
  169THF     C1 2672   2.542   3.029   2.833  0.0880  0.3405  0.2273
  169THF     C2 2673   2.527   2.882   2.811  0.4632 -0.4365 -0.0245
  169THF     C3 2674   2.495   2.831   2.953  0.2741  1.0150 -0.0164
  169THF     O1 2675   2.568   2.910   3.039 -0.4660  0.2101 -0.2649
  169THF     C4 2676   2.587   3.041   2.982 -0.2680  0.0166 -0.4407
  169THF     H1 2677   2.614   3.076   2.765  1.6187 -1.7117  0.3938
  169THF     H2 2678   2.444   3.076   2.816  0.4567  0.0685 -2.9539
  169THF     H3 2679   2.614   2.826   2.776 -1.3825 -2.3724 -1.6898
  169THF     H4 2680   2.441   2.864   2.745 -1.7989  1.9647  2.1324
  169THF     H5 2681   2.390   2.845   2.983 -0.2320 -0.0512 -1.2731
  169THF     H6 2682   2.512   2.723   2.952  0.7253  1.0742 -1.8006
  169THF     H7 2683   2.540   3.121   3.040  0.7594  0.7326 -0.5619
  169THF     H8 2684   2.695   3.059   2.995 -0.4684  1.8840 -1.1983
  170THF     C1 2685   0.346   0.142   3.168 -0.1635  0.5960 -0.4896
  170THF     C2 2686   0.190   0.159   3.157 -0.1435 -0.1915 -0.2318
  170THF     C3 2687   0.130   0.014   3.126 -0.2472 -1.1807  0.4786
  170THF     O1 2688   0.252  -0.066   3.108 -0.1335  0.3170 -0.0721
  170THF     C4 2689   0.356  -0.006   3.193 -0.5205  0.0786  0.2923
  170THF     H1 2690   0.380   0.162   3.066 -0.2045  0.3259 -0.5551
  170THF     H2 2691   0.397   0.204   3.242 -2.7591  0.8270  1.1975
  170THF     H3 2692   0.140   0.230   3.090 -1.0334  0.4839  1.1291
  170THF     H4 2693   0.152   0.183   3.257  1.5722  0.9098  0.1869
  170THF     H5 2694   0.076  -0.022   3.214 -1.9881 -0.0970 -0.1223
  170THF     H6 2695   0.054   0.018   3.047 -1.9281 -4.5351  1.8156
  170THF     H7 2696   0.334  -0.029   3.298  0.3232 -1.1134  0.2182
  170THF     H8 2697   0.459  -0.039   3.175  0.8129  3.4618  1.1697
  171THF     C1 2698   0.541   3.187   0.321  1.0962 -0.0132  0.6841
  171THF     C2 2699   0.553   3.272   0.191 -0.2697 -0.4272 -0.0488
  171THF     C3 2700   0.675   3.206   0.129  0.8426 -0.5096 -0.1117
  171THF     O1 2701   0.732   3.115   0.224  0.6786 -0.3165 -0.2033
  171THF     C4 2702   0.620   3.057   0.295  0.2231 -0.3943  0.3562
  171THF     H1 2703   0.589   3.247   0.399 -0.2084 -0.5529  1.9226
  171THF     H2 2704   0.439   3.166   0.354  0.6745 -1.5912 -1.5771
  171THF     H3 2705   0.559   3.378   0.217 -2.5749 -0.3594  0.3743
  171THF     H4 2706   0.467   3.266   0.123 -0.6531 -0.5910  0.4473
  171THF     H5 2707   0.647   3.150   0.039 -1.2781  1.6177 -0.8138
  171THF     H6 2708   0.744   3.289   0.114 -0.6287  1.0085  1.3236
  171THF     H7 2709   0.560   2.989   0.233 -2.0642 -0.3187  2.4141
  171THF     H8 2710   0.647   2.995   0.381 -0.9312  0.7860  1.6074
  172THF     C1 2711   1.187   2.716   3.482  0.0944  0.1055  0.4295
  172THF     C2 2712   1.294   2.822   3.460 -0.1353  0.6726  0.8104
  172THF     C3 2713   1.347   2.840   3.615  0.3288 -0.4511  0.1923
  172THF     O1 2714   1.285   2.734   3.694  0.4401 -0.0425 -0.4812
  172THF     C4 2715   1.244   2.631   3.602  0.5930 -0.2050  0.0298
  172THF     H1 2716   1.094   2.765   3.514  0.6858  1.0830  0.6739
  172THF     H2 2717   1.158   2.663   3.391 -0.2727 -2.5036  2.0216
  172THF     H3 2718   1.251   2.913   3.418  1.5802  1.3579  0.4653
  172THF     H4 2719   1.366   2.794   3.381 -0.3162 -1.1983  1.2821
  172THF     H5 2720   1.456   2.837   3.627  0.3576  0.7051  0.3530
  172THF     H6 2721   1.309   2.936   3.652 -0.0133 -0.9968  1.2468
  172THF     H7 2722   1.328   2.567   3.570 -0.7617 -1.0894 -1.8794
  172THF     H8 2723   1.168   2.569   3.649 -0.7233 -0.0571 -1.8364
  173THF     C1 2724   1.493   1.347   2.227 -0.3739 -0.2963  0.0216
  173THF     C2 2725   1.551   1.500   2.227 -0.2421 -0.2182  0.0760
  173THF     C3 2726   1.570   1.526   2.382 -0.0772  0.4654  0.2399
  173THF     O1 2727   1.581   1.397   2.444  0.5976 -0.3818 -0.9006
  173THF     C4 2728   1.491   1.312   2.379 -0.9355 -0.2952  0.3138
  173THF     H1 2729   1.389   1.339   2.193 -0.2670 -2.9588  0.1808
  173THF     H2 2730   1.556   1.277   2.170  1.6706  0.6424  1.0905
  173THF     H3 2731   1.486   1.576   2.183 -0.4655  0.0325  0.8381
  173THF     H4 2732   1.648   1.514   2.178 -1.2098  0.9028 -1.5484
  173THF     H5 2733   1.645   1.604   2.393 -1.4434  1.9404 -0.6178
  173THF     H6 2734   1.475   1.571   2.413  0.4501  3.8248 -2.8162
  173THF     H7 2735   1.518   1.206   2.387 -2.4158 -0.7056  0.1177
  173THF     H8 2736   1.391   1.326   2.421 -2.0770 -0.6801 -2.1969
  174THF     C1 2737   1.875   1.050   2.468  0.0303  0.4182  0.9671
  174THF     C2 2738   1.841   1.090   2.321  0.0630  0.4224 -0.1826
  174THF     C3 2739   1.839   0.947   2.243 -0.0812 -0.3272 -0.1878
  174THF     O1 2740   1.862   0.845   2.338  0.0075 -0.0713 -0.0875
  174THF     C4 2741   1.941   0.902   2.449  0.3694 -0.0269 -0.5955
  174THF     H1 2742   1.947   1.118   2.514 -0.7815  2.5182 -0.7975
  174THF     H2 2743   1.786   1.045   2.532 -1.8964  0.5912 -1.6152
  174THF     H3 2744   1.912   1.162   2.278  0.0730  0.8963  0.5987
  174THF     H4 2745   1.746   1.142   2.310  0.8703  1.5015 -2.2677
  174THF     H5 2746   1.742   0.931   2.194 -0.7852 -1.1944  1.4219
  174THF     H6 2747   1.912   0.943   2.162 -0.7640 -2.1899 -0.7448
  174THF     H7 2748   1.926   0.837   2.536  0.8928 -0.3830 -0.7655
  174THF     H8 2749   2.048   0.913   2.424  0.9703 -2.8769  0.4959
  175THF     C1 2750   0.327   2.265   2.407 -0.0656  0.1658  0.4235
  175THF     C2 2751   0.323   2.273   2.248  0.4187  0.7194 -0.3788
  175THF     C3 2752   0.272   2.421   2.226 -0.6347  0.1710 -0.0258
  175THF     O1 2753   0.242   2.476   2.353  0.6409  0.3140  0.3510
  175THF     C4 2754   0.322   2.413   2.458 -0.8644 -0.0355 -0.1074
  175THF     H1 2755   0.243   2.216   2.458  0.3238  0.3223  1.2151
  175THF     H2 2756   0.417   2.218   2.446  0.9457  0.1568 -1.8551
  175THF     H3 2757   0.267   2.197   2.193 -0.1073  0.3867  0.5884
  175THF     H4 2758   0.422   2.259   2.205  1.3595  0.3521  1.8438
  175THF     H5 2759   0.357   2.476   2.184 -1.4300  0.8989 -0.6934
  175THF     H6 2760   0.180   2.430   2.166 -0.6898 -0.1083  0.0155
  175THF     H7 2761   0.424   2.452   2.470 -0.7976  0.1335 -1.2471
  175THF     H8 2762   0.263   2.417   2.551 -1.2673  1.1046 -0.4030
  176THF     C1 2763   1.376   0.018   2.449 -0.2196 -0.2487  0.1613
  176THF     C2 2764   1.326   0.151   2.399 -0.0609  0.5736 -0.4791
  176THF     C3 2765   1.305   0.134   2.246  0.5439 -0.1245 -0.0833
  176THF     O1 2766   1.232   0.006   2.250  0.7590  0.2467  0.3658
  176THF     C4 2767   1.302  -0.078   2.348  0.0361 -0.1634 -0.2140
  176THF     H1 2768   1.486   0.016   2.441 -0.1758  0.8494  0.3726
  176THF     H2 2769   1.352   0.006   2.556 -0.1227 -1.3345  0.0700
  176THF     H3 2770   1.390   0.238   2.423  2.4410 -1.3729  0.1401
  176THF     H4 2771   1.229   0.177   2.442  0.3836 -1.4004  1.7823
  176THF     H5 2772   1.249   0.221   2.207  1.2492  1.1318  1.5972
  176THF     H6 2773   1.399   0.118   2.192  0.4548  1.4128 -0.7429
  176THF     H7 2774   1.225  -0.128   2.408  0.8006 -0.2270  0.7101
  176THF     H8 2775   1.367  -0.147   2.293  0.3457 -0.2206  0.2329
  177THF     C1 2776   0.217   2.655   3.010  0.1049  0.7370  0.3263
  177THF     C2 2777   0.193   2.745   2.893  0.2096  0.2768 -0.3376
  177THF     C3 2778   0.104   2.655   2.807  0.5107  0.3089  0.2237
  177THF     O1 2779   0.180   2.532   2.808 -0.9173 -0.1070  0.0681
  177THF     C4 2780   0.219   2.513   2.945  0.3148  0.6147  0.2835
  177THF     H1 2781   0.309   2.686   3.059  0.0594 -1.0836  1.6001
  177THF     H2 2782   0.135   2.655   3.082  1.1016  0.6524  1.4726
  177THF     H3 2783   0.292   2.765   2.850 -0.1589  0.9885 -0.8600
  177THF     H4 2784   0.142   2.839   2.914  1.4550  1.0446 -0.6679
  177THF     H5 2785   0.004   2.642   2.849  0.2580  0.4068 -0.3350
  177THF     H6 2786   0.089   2.699   2.707  3.0724  0.2335 -0.2328
  177THF     H7 2787   0.134   2.457   2.986 -0.6060  0.6656 -1.5183
  177THF     H8 2788   0.310   2.453   2.963 -0.6229 -0.6215  0.9426
  178THF     C1 2789   0.472   0.192   2.248 -0.0786 -0.4494 -0.6422
  178THF     C2 2790   0.334   0.118   2.245 -0.0713 -0.4325 -0.4816
  178THF     C3 2791   0.239   0.242   2.251  0.2696 -0.5644 -0.1466
  178THF     O1 2792   0.311   0.337   2.331  0.0501 -0.0444  0.1409
  178THF     C4 2793   0.444   0.342   2.276 -0.2248 -0.4265 -0.1203
  178THF     H1 2794   0.536   0.151   2.327  0.4492  0.5802 -0.5356
  178THF     H2 2795   0.531   0.180   2.156  0.5319 -0.9938 -0.1857
  178THF     H3 2796   0.333   0.054   2.334  0.7876  1.0671  0.6313
  178THF     H4 2797   0.322   0.052   2.158  0.7496 -1.9096  0.5043
  178THF     H5 2798   0.230   0.274   2.146  0.8911 -1.1860 -0.3960
  178THF     H6 2799   0.142   0.224   2.299 -0.0340 -0.5797 -0.7619
  178THF     H7 2800   0.435   0.406   2.187 -1.0185  2.3561  1.8819
  178THF     H8 2801   0.507   0.385   2.355  0.5664 -1.8629  0.0471
  179THF     C1 2802   1.741   2.926   3.211  0.3056  0.1524  0.4046
  179THF     C2 2803   1.790   2.803   3.125 -0.1782 -0.0076  0.2276
  179THF     C3 2804   1.656   2.772   3.058  0.1854  0.1037  0.3464
  179THF     O1 2805   1.573   2.761   3.170  0.5884 -0.7502  0.1769
  179THF     C4 2806   1.610   2.865   3.270  0.2688  0.6661  0.3788
  179THF     H1 2807   1.811   2.958   3.289 -2.5006  1.3859  2.5384
  179THF     H2 2808   1.716   3.015   3.153  0.8496 -0.8807 -1.4278
  179THF     H3 2809   1.830   2.713   3.174 -3.6957 -2.5823 -1.4457
  179THF     H4 2810   1.855   2.852   3.053 -2.1872  2.1072 -0.1801
  179THF     H5 2811   1.623   2.854   2.993 -1.0754 -1.2353 -0.7484
  179THF     H6 2812   1.661   2.677   3.003  0.9878 -0.1041  0.7692
  179THF     H7 2813   1.528   2.938   3.272 -1.5070 -1.2356 -1.4654
  179THF     H8 2814   1.626   2.807   3.362 -2.0582  0.4457  0.6762
  180THF     C1 2815   3.005   0.108   2.840 -0.0553 -0.2964  0.3314
  180THF     C2 2816   3.073   0.088   2.710 -0.7599  0.1003  0.7838
  180THF     C3 2817   2.953   0.036   2.618 -0.2097 -0.2056  0.8322
  180THF     O1 2818   2.866  -0.028   2.707  0.9613 -0.4950  0.2885
  180THF     C4 2819   2.898  -0.003   2.843 -0.1398 -0.0949 -0.2681
  180THF     H1 2820   3.069   0.108   2.929 -2.0792  0.6535  1.8382
  180THF     H2 2821   2.954   0.204   2.833 -0.3856 -0.4854  0.1439
  180THF     H3 2822   3.155   0.016   2.718  0.7569  1.6870 -0.2395
  180THF     H4 2823   3.124   0.183   2.691  0.4007 -0.5456  0.5980
  180THF     H5 2824   2.907   0.125   2.572  0.4010  1.2500  2.9440
  180THF     H6 2825   2.980  -0.035   2.540 -0.8850  0.5626 -0.1104
  180THF     H7 2826   2.815   0.049   2.893  0.2897  0.2278  0.1154
  180THF     H8 2827   2.920  -0.087   2.910 -4.4999  1.0753  2.7938
  181THF     C1 2828   3.194   1.720   3.602  0.6487 -0.6861 -0.1759
  181THF     C2 2829   3.220   1.769   3.452 -0.0069  0.7060 -0.2356
  181THF     C3 2830   3.076   1.825   3.421 -0.1885 -0.2067  0.4299
  181THF     O1 2831   3.031   1.875   3.545  0.3290  0.2921  0.4210
  181THF     C4 2832   3.055   1.775   3.637 -0.2261  0.6599  0.3674
  181THF     H1 2833   3.198   1.611   3.600  0.2362 -0.7402  1.2965
  181THF     H2 2834   3.262   1.757   3.680  0.1574  0.0992 -0.1078
  181THF     H3 2835   3.259   1.694   3.383  1.7073  0.7285  0.6816
  181THF     H4 2836   3.292   1.852   3.451 -0.3444  1.0516  2.2591
  181THF     H5 2837   3.085   1.910   3.353 -3.0902  0.0350  0.2698
  181THF     H6 2838   2.997   1.758   3.385  2.0040 -3.6876  1.8308
  181THF     H7 2839   3.052   1.825   3.735  1.3207  2.0304 -0.2836
  181THF     H8 2840   2.971   1.704   3.629 -0.4787  1.2412 -2.5557
  182THF     C1 2841   1.796   1.237   2.814  0.2766  0.3282  0.6705
  182THF     C2 2842   1.708   1.308   2.705  0.3920  0.0984 -0.0813
  182THF     C3 2843   1.691   1.447   2.772  0.4678 -0.3475  0.5280
  182THF     O1 2844   1.732   1.423   2.912  0.6038 -0.4558 -0.1937
  182THF     C4 2845   1.847   1.348   2.916  0.2398  1.1988  0.2641
  182THF     H1 2846   1.730   1.162   2.859 -1.1370  1.5411  0.6918
  182THF     H2 2847   1.877   1.174   2.776  1.8255  2.1316  0.9373
  182THF     H3 2848   1.609   1.263   2.689  0.3160  0.3810 -0.4149
  182THF     H4 2849   1.757   1.331   2.609 -0.7869 -2.0502 -1.2339
  182THF     H5 2850   1.764   1.520   2.733 -0.3132  0.4488  0.5330
  182THF     H6 2851   1.589   1.487   2.759  1.2680  1.5889 -0.0432
  182THF     H7 2852   1.938   1.402   2.887  0.4077  0.5498 -0.4029
  182THF     H8 2853   1.851   1.301   3.015 -2.2519  0.9224  0.2580
  183THF     C1 2854   3.303   0.810   2.790 -0.9324  0.0187  0.3829
  183THF     C2 2855   3.342   0.960   2.767  0.6088 -0.1584 -0.2903
  183THF     C3 2856   3.347   1.011   2.914  0.7569  1.1378 -0.8190
  183THF     O1 2857   3.263   0.917   2.988  0.4637 -0.3888  0.3517
  183THF     C4 2858   3.192   0.828   2.900  0.6921  0.7146  0.3087
  183THF     H1 2859   3.261   0.768   2.699  1.0100  1.1144 -1.0571
  183THF     H2 2860   3.382   0.743   2.825  0.3575  1.0100 -0.5946
  183THF     H3 2861   3.263   1.024   2.724  0.2008 -0.1661  0.4278
  183THF     H4 2862   3.438   0.989   2.724 -0.4944 -0.4107 -3.0124
  183THF     H5 2863   3.448   1.012   2.956 -0.5462  2.2295  2.4134
  183THF     H6 2864   3.298   1.109   2.919  1.4880  1.4586  0.1198
  183THF     H7 2865   3.155   0.742   2.956 -1.4871  0.2569 -1.7648
  183THF     H8 2866   3.106   0.883   2.859  1.7577 -0.0642 -3.1662
  184THF     C1 2867   2.980   1.981   0.656  0.1321  0.2025  0.0108
  184THF     C2 2868   3.109   1.983   0.755 -0.0794 -0.0372  0.2129
  184THF     C3 2869   3.128   2.138   0.786 -0.4532 -0.2525 -0.1477
  184THF     O1 2870   3.095   2.194   0.662 -0.2428 -0.0430 -0.4713
  184THF     C4 2871   2.995   2.119   0.588 -0.1658 -0.1763 -0.4986
  184THF     H1 2872   2.986   1.899   0.583 -0.0521 -2.0861  2.4709
  184THF     H2 2873   2.891   1.970   0.719  0.2277 -1.2139 -0.0821
  184THF     H3 2874   3.191   1.936   0.700  0.9068 -0.5791  2.0959
  184THF     H4 2875   3.095   1.924   0.847  1.6381 -2.1647 -0.8371
  184THF     H5 2876   3.051   2.183   0.851 -1.8822 -0.8217 -1.4243
  184THF     H6 2877   3.231   2.162   0.816 -1.5521  2.3388  1.8577
  184THF     H7 2878   2.897   2.168   0.582 -0.1269  0.2648  1.9100
  184THF     H8 2879   3.034   2.114   0.486 -1.3573  1.1708 -1.0394
  185THF     C1 2880   0.633   2.599   2.887  0.1726  0.0004  0.4942
  185THF     C2 2881   0.781   2.565   2.854  0.1926  0.0620  0.7035
  185THF     C3 2882   0.798   2.592   2.703  0.8056 -0.0114 -0.4447
  185THF     O1 2883   0.670   2.549   2.657  0.0860  0.1845 -0.2375
  185THF     C4 2884   0.572   2.609   2.748  0.1102  0.9023  0.9488
  185THF     H1 2885   0.582   2.531   2.956  0.2565  0.9499  1.4992
  185THF     H2 2886   0.640   2.693   2.942 -0.0411 -0.6312  1.6206
  185THF     H3 2887   0.808   2.466   2.893  0.4721  1.6964  4.9535
  185THF     H4 2888   0.844   2.627   2.920  1.4144 -0.5029  0.0817
  185THF     H5 2889   0.824   2.697   2.682 -0.4533  0.2227 -0.8900
  185THF     H6 2890   0.882   2.539   2.657  1.2586  0.0958  0.2532
  185THF     H7 2891   0.579   2.711   2.707 -0.8181  0.1937 -1.0410
  185THF     H8 2892   0.474   2.560   2.741  0.0796  1.1449 -0.5682
  186THF     C1 2893   0.640   1.876   2.412 -1.2050  0.5031  0.6925
  186THF     C2 2894   0.770   1.802   2.368  0.2718 -0.4890  0.7520
  186THF     C3 2895   0.811   1.894   2.253  0.4661  0.2568  0.8609
  186THF     O1 2896   0.685   1.914   2.189 -0.4595  0.1050  0.7464
  186THF     C4 2897   0.586   1.942   2.288 -0.0532  0.3446  0.2101
  186THF     H1 2898   0.556   1.811   2.441 -1.2317  1.0604  1.9017
  186THF     H2 2899   0.652   1.950   2.492 -0.4136  2.4114 -1.1772
  186THF     H3 2900   0.749   1.702   2.328 -0.7524  0.0008  0.0411
  186THF     H4 2901   0.842   1.793   2.450 -0.9015  0.6576  1.9321
  186THF     H5 2902   0.845   1.992   2.287  2.7374 -0.5370  0.9576
  186THF     H6 2903   0.878   1.849   2.179 -1.9314 -0.6715 -0.8293
  186THF     H7 2904   0.581   2.049   2.315 -2.7943 -0.0306  1.2970
  186THF     H8 2905   0.489   1.918   2.244 -0.0128 -0.0802  0.3560
  187THF     C1 2906   2.050   2.755   0.127  0.6957 -0.2373 -0.4744
  187THF     C2 2907   2.173   2.849   0.130  0.1683  0.4086  0.0555
  187THF     C3 2908   2.141   2.955   0.236  0.0896 -0.2712 -0.5802
  187THF     O1 2909   2.005   2.978   0.218  0.4985  0.0450  0.4691
  187THF     C4 2910   1.945   2.845   0.205  0.6000  0.3397  0.1901
  187THF     H1 2911   2.032   2.724   0.024 -1.2490 -1.8283  0.2902
  187THF     H2 2912   2.076   2.657   0.168  4.4154 -0.4326 -3.0756
  187THF     H3 2913   2.182   2.890   0.029  0.7255  1.3361  0.4753
  187THF     H4 2914   2.265   2.791   0.144 -0.8012 -0.5431  2.9050
  187THF     H5 2915   2.160   2.919   0.338  1.6089 -1.1629 -1.1638
  187THF     H6 2916   2.201   3.046   0.222  1.5469 -1.2199 -0.5345
  187THF     H7 2917   1.915   2.813   0.305 -0.7119 -1.1987 -0.6629
  187THF     H8 2918   1.850   2.849   0.149  0.1673  1.8292  0.9853
  188THF     C1 2919   0.799   2.812   2.374 -1.0984  0.1456  0.1497
  188THF     C2 2920   0.782   2.731   2.251  0.0371 -0.3778 -0.7731
  188THF     C3 2921   0.921   2.646   2.258 -0.3921 -0.4413 -0.4169
  188THF     O1 2922   1.016   2.745   2.300 -0.0143  0.1186  0.4029
  188THF     C4 2923   0.952   2.844   2.386 -0.2444  0.0420 -0.5225
  188THF     H1 2924   0.728   2.894   2.390 -0.7809  0.7721 -1.5194
  188THF     H2 2925   0.770   2.747   2.457 -0.9454  0.8362  0.7459
  188THF     H3 2926   0.767   2.792   2.161 -3.0802  2.3543  1.4879
  188THF     H4 2927   0.700   2.659   2.258  1.0859 -1.3674  1.9458
  188THF     H5 2928   0.918   2.564   2.330 -0.0748 -1.1961 -1.2635
  188THF     H6 2929   0.957   2.610   2.161  1.0471 -1.7567  0.5938
  188THF     H7 2930   0.990   2.841   2.489 -1.1669  2.1193 -0.0895
  188THF     H8 2931   0.990   2.944   2.363 -1.2704  0.4476 -0.4658
  189THF     C1 2932   0.771   1.340   2.390  0.7550 -0.5896  0.0370
  189THF     C2 2933   0.826   1.345   2.236  0.9942 -0.6164 -0.0354
  189THF     C3 2934   0.959   1.414   2.244 -0.8420  0.9268 -0.1781
  189THF     O1 2935   0.993   1.398   2.383 -0.0477 -0.3687  0.4147
  189THF     C4 2936   0.882   1.424   2.464  0.0483 -0.4013  0.5815
  189THF     H1 2937   0.671   1.382   2.409  0.6740 -0.2929 -1.0119
  189THF     H2 2938   0.759   1.240   2.432 -1.4286  0.6087  2.4573
  189THF     H3 2939   0.749   1.394   2.175  0.3189 -0.7424  0.7097
  189THF     H4 2940   0.839   1.246   2.192  0.3282 -0.5706 -0.3453
  189THF     H5 2941   1.039   1.370   2.184  0.9445 -0.1049  2.8798
  189THF     H6 2942   0.967   1.522   2.227  1.2423  0.6859 -0.8408
  189THF     H7 2943   0.897   1.397   2.569 -1.0326 -0.0270  0.8455
  189THF     H8 2944   0.860   1.530   2.445 -0.5727 -0.6231  0.0193
  190THF     C1 2945   1.508   0.898   0.248 -0.7764 -0.0126 -0.3300
  190THF     C2 2946   1.423   0.864   0.118 -0.2065 -0.5459 -0.2112
  190THF     C3 2947   1.376   0.719   0.145 -0.3232 -0.1687  1.2923
  190THF     O1 2948   1.374   0.704   0.289 -0.1605  0.5332 -0.6716
  190THF     C4 2949   1.485   0.773   0.338 -0.3430 -0.3062 -0.6502
  190THF     H1 2950   1.614   0.893   0.221 -0.1650  1.5100  1.6830
  190THF     H2 2951   1.495   0.993   0.300 -1.5760 -0.4709  0.3170
  190THF     H3 2952   1.461   0.877   0.016  0.8390  1.8666  0.4592
  190THF     H4 2953   1.329   0.919   0.113  0.0115  0.0046  1.5667
  190THF     H5 2954   1.275   0.685   0.118 -0.9671  1.4787  1.5441
  190THF     H6 2955   1.446   0.648   0.099 -1.8742 -1.1514  0.3927
  190THF     H7 2956   1.459   0.818   0.434  2.2764 -0.2765  0.1018
  190THF     H8 2957   1.571   0.706   0.354  0.8676  1.5903  1.1020
  191THF     C1 2958   0.457   0.568   2.771 -0.0657 -0.2311  0.1935
  191THF     C2 2959   0.489   0.457   2.873  1.1614 -0.2176  0.5288
  191THF     C3 2960   0.596   0.371   2.805  0.9009 -0.9799 -0.2050
  191THF     O1 2961   0.596   0.410   2.660  0.8303 -0.0717 -0.6413
  191THF     C4 2962   0.486   0.507   2.632 -0.4613  0.1823  0.2012
  191THF     H1 2963   0.354   0.605   2.775 -0.6682 -1.7795 -0.3277
  191THF     H2 2964   0.530   0.646   2.794  1.2220 -0.8697 -1.5778
  191THF     H3 2965   0.404   0.398   2.910  2.2234 -2.3493 -0.3446
  191THF     H4 2966   0.533   0.482   2.970 -0.0916  0.5393  0.9158
  191THF     H5 2967   0.692   0.388   2.856  0.8504 -2.5829  0.4384
  191THF     H6 2968   0.576   0.263   2.805 -1.9919 -0.4859  0.3599
  191THF     H7 2969   0.517   0.582   2.558  2.9234  0.5944  1.9734
  191THF     H8 2970   0.400   0.456   2.587 -0.5078  1.2831 -1.0143
  192THF     C1 2971   2.233   3.132   3.252 -0.4319 -0.3752 -0.1339
  192THF     C2 2972   2.087   3.144   3.202  0.1250  0.0259  0.1384
  192THF     C3 2973   2.022   3.199   3.334 -0.4533  0.2694  0.3203
  192THF     O1 2974   2.095   3.145   3.448 -0.3571  0.0904  0.6483
  192THF     C4 2975   2.224   3.086   3.401  0.6959 -0.3637  0.1062
  192THF     H1 2976   2.287   3.069   3.181  2.2013  0.4144  1.1307
  192THF     H2 2977   2.283   3.228   3.236  0.9681 -1.4444 -2.4629
  192THF     H3 2978   2.060   3.042   3.173  2.7942  0.1048 -2.8606
  192THF     H4 2979   2.078   3.216   3.119 -0.5252 -1.2660 -0.9349
  192THF     H5 2980   2.041   3.307   3.333 -1.5546  0.4624 -0.2122
  192THF     H6 2981   1.914   3.181   3.341 -0.4863  0.3833  0.0901
  192THF     H7 2982   2.303   3.131   3.462 -0.2003 -0.2408  1.1835
  192THF     H8 2983   2.215   2.976   3.401  0.3219 -0.3511 -1.3547
  193THF     C1 2984   2.331   1.268   2.832 -0.1610  0.2705  0.1145
  193THF     C2 2985   2.186   1.315   2.839 -0.2901  0.2894 -0.6571
  193THF     C3 2986   2.208   1.472   2.846  0.1466 -0.1931  0.5871
  193THF     O1 2987   2.307   1.498   2.746 -0.0171  0.0386 -0.5184
  193THF     C4 2988   2.409   1.389   2.762  0.0906  0.0406 -0.4755
  193THF     H1 2989   2.384   1.259   2.927 -1.8452  0.9901  1.1509
  193THF     H2 2990   2.335   1.178   2.769 -3.2546  1.3362 -1.7340
  193THF     H3 2991   2.151   1.280   2.937  2.8020  0.6438  0.6428
  193THF     H4 2992   2.122   1.288   2.755  0.1940  0.7267 -1.1683
  193THF     H5 2993   2.114   1.519   2.812  0.2532 -1.5750 -1.7433
  193THF     H6 2994   2.246   1.502   2.944  2.4444 -0.5635 -0.1714
  193THF     H7 2995   2.437   1.358   2.660  0.3152  1.0218 -0.7154
  193THF     H8 2996   2.501   1.419   2.815  0.0885 -1.0417  0.1546
  194THF     C1 2997   1.275   2.592   2.894 -0.0178 -0.7041 -0.9095
  194THF     C2 2998   1.292   2.672   2.761  0.2109 -0.3191 -0.4732
  194THF     C3 2999   1.152   2.651   2.685  0.3734  0.1590 -0.4737
  194THF     O1 3000   1.094   2.542   2.758 -0.3591 -0.8958 -0.4172
  194THF     C4 3001   1.128   2.552   2.897 -0.0633 -0.3718  0.1332
  194THF     H1 3002   1.356   2.519   2.892  1.2104  0.5515  1.0555
  194THF     H2 3003   1.295   2.649   2.985  1.5805 -1.5832 -0.7026
  194THF     H3 3004   1.383   2.637   2.711  0.4246  0.5932 -0.7237
  194THF     H4 3005   1.320   2.777   2.774  0.3746 -0.2102 -1.6676
  194THF     H5 3006   1.098   2.747   2.689 -0.2186 -0.0194 -3.3028
  194THF     H6 3007   1.165   2.613   2.583 -2.4333 -1.4559 -0.2636
  194THF     H7 3008   1.068   2.628   2.948 -0.3371  0.9748 -2.1513
  194THF     H8 3009   1.105   2.454   2.941  0.0678 -0.2239  0.5337
  195THF     C1 3010   1.653   2.268   2.740  0.4847 -0.3494 -0.1106
  195THF     C2 3011   1.534   2.337   2.816 -0.4873  0.6033 -0.1340
  195THF     C3 3012   1.407   2.253   2.776  0.1767  0.4765  0.1668
  195THF     O1 3013   1.467   2.123   2.773 -0.3657 -0.1151  0.2576
  195THF     C4 3014   1.585   2.133   2.689  0.1242  0.1326  0.8024
  195THF     H1 3015   1.698   2.323   2.656  0.5978  0.7886  0.6928
  195THF     H2 3016   1.734   2.249   2.811  0.7025  0.8343 -0.0262
  195THF     H3 3017   1.518   2.440   2.782 -1.5786  1.0071  1.5529
  195THF     H4 3018   1.545   2.329   2.924  2.0564  2.3041 -0.2186
  195THF     H5 3019   1.329   2.247   2.853 -2.4417 -1.4492 -2.4753
  195THF     H6 3020   1.363   2.281   2.679  0.1164  0.3361  0.1522
  195THF     H7 3021   1.640   2.039   2.694 -0.5287 -0.1977  1.9292
  195THF     H8 3022   1.544   2.156   2.589  0.0073 -2.1279  0.2998
  196THF     C1 3023   2.279   2.441   2.308 -0.1311  0.2512 -0.4621
  196THF     C2 3024   2.301   2.447   2.460 -0.5226  0.0429  0.0150
  196THF     C3 3025   2.455   2.434   2.480  0.0741 -0.3992 -0.1091
  196THF     O1 3026   2.485   2.355   2.366 -0.5390 -0.1105  0.3396
  196THF     C4 3027   2.418   2.404   2.250 -0.2079 -0.4863  0.6087
  196THF     H1 3028   2.202   2.369   2.279 -0.6495  0.3425  0.6668
  196THF     H2 3029   2.259   2.545   2.279  3.7337  0.9815 -0.7837
  196THF     H3 3030   2.257   2.357   2.504 -1.8115  2.1206  3.0628
  196THF     H4 3031   2.265   2.534   2.516 -1.5559 -2.0783  2.7635
  196THF     H5 3032   2.515   2.526   2.476  1.2751 -1.1561  0.3565
  196THF     H6 3033   2.486   2.384   2.572 -0.2225 -0.9500 -0.3054
  196THF     H7 3034   2.470   2.495   2.218 -2.0065  0.4852  0.4190
  196THF     H8 3035   2.409   2.323   2.176 -0.2258 -0.4746  0.5989
  197THF     C1 3036   0.781   2.303   2.267  0.5647 -0.6216  0.3828
  197THF     C2 3037   0.740   2.320   2.411  0.1266  0.0979 -0.7648
  197THF     C3 3038   0.850   2.251   2.487  0.0471  0.5653 -0.4953
  197THF     O1 3039   0.942   2.191   2.394  0.5495 -0.7455 -0.2035
  197THF     C4 3040   0.932   2.261   2.272 -0.3898  0.0209 -0.2569
  197THF     H1 3041   0.734   2.229   2.201 -0.3547 -0.2810  0.6439
  197THF     H2 3042   0.750   2.389   2.207  0.5806  0.9441  2.5718
  197THF     H3 3043   0.639   2.284   2.436  0.5726  0.8852  2.3590
  197THF     H4 3044   0.743   2.425   2.442  0.3141 -0.2082  0.2897
  197THF     H5 3045   0.901   2.326   2.550 -2.1446 -0.7231  2.9058
  197THF     H6 3046   0.813   2.169   2.550 -1.3313 -0.2568 -2.3253
  197THF     H7 3047   0.998   2.348   2.283 -1.0117  0.4185  0.3651
  197THF     H8 3048   0.976   2.211   2.185  2.6989  2.5100 -0.2474
  198THF     C1 3049   3.329   2.787   2.321  0.3198  0.4355 -0.6600
  198THF     C2 3050   3.372   2.634   2.331  0.0336  0.7158 -0.3573
  198THF     C3 3051   3.246   2.553   2.292 -0.8653 -0.0055 -0.5144
  198THF     O1 3052   3.172   2.641   2.207 -0.2011 -0.6946  0.0963
  198THF     C4 3053   3.171   2.767   2.284 -0.1584 -1.2788 -0.3876
  198THF     H1 3054   3.344   2.848   2.411  0.3746 -0.9062  0.2486
  198THF     H2 3055   3.392   2.829   2.242  0.0807 -0.6894 -1.4534
  198THF     H3 3056   3.415   2.600   2.427  0.9907 -0.0820 -1.0565
  198THF     H4 3057   3.447   2.614   2.254  0.0528 -2.2281  0.3779
  198THF     H5 3058   3.269   2.465   2.232  0.3222  0.1079 -0.2431
  198THF     H6 3059   3.186   2.518   2.377 -0.1886 -0.9215 -0.4075
  198THF     H7 3060   3.154   2.843   2.207 -0.1543 -1.6858 -0.7888
  198THF     H8 3061   3.090   2.763   2.358 -0.1217  2.0965 -0.0536
  199THF     C1 3062   3.234   0.977   0.044 -0.1179 -0.5188  0.3064
  199THF     C2 3063   3.193   0.893   0.174 -0.9169  0.5122 -0.4863
  199THF     C3 3064   3.334   0.851   0.233  0.0893  0.3724  0.9920
  199THF     O1 3065   3.424   0.943   0.172  0.1636 -0.2818 -0.3006
  199THF     C4 3066   3.384   0.958   0.040 -0.4099  0.5183  0.0456
  199THF     H1 3067   3.186   0.936  -0.045 -0.6498 -0.3513  0.5160
  199THF     H2 3068   3.216   1.085   0.039  0.6654 -0.3096  1.6349
  199THF     H3 3069   3.131   0.806   0.150 -1.2701 -0.0783  2.4197
  199THF     H4 3070   3.132   0.949   0.246 -0.4565  0.1067  0.2297
  199THF     H5 3071   3.348   0.864   0.341 -0.2020  0.3200  1.0347
  199THF     H6 3072   3.356   0.746   0.209 -0.9942 -0.2266  2.6100
  199THF     H7 3073   3.437   1.043  -0.005  0.9909 -0.4574 -0.1538
  199THF     H8 3074   3.414   0.875  -0.025  0.1140  0.5707  0.2219
  200THF     C1 3075   2.055   1.966   3.475 -0.9058 -0.2594 -0.2825
  200THF     C2 3076   2.073   1.995   3.326  0.3297  0.1743  1.4959
  200THF     C3 3077   2.172   2.119   3.338 -0.1707  0.2208 -1.0477
  200THF     O1 3078   2.111   2.200   3.447 -0.1105 -0.2211  0.3057
  200THF     C4 3079   2.054   2.113   3.542  0.8865  0.2459  1.0130
  200THF     H1 3080   1.959   1.920   3.501 -0.9604 -0.8212 -1.4639
  200THF     H2 3081   2.141   1.907   3.511 -0.4960  0.8156  0.5409
  200THF     H3 3082   1.981   2.019   3.272  1.4388  0.2753 -0.3717
  200THF     H4 3083   2.108   1.903   3.278 -1.9689  0.5181 -0.9753
  200THF     H5 3084   2.275   2.095   3.364 -0.9637 -2.7357 -0.5067
  200THF     H6 3085   2.173   2.175   3.244 -0.8645  0.3665 -0.9739
  200THF     H7 3086   2.110   2.113   3.636  2.1090 -0.9454  0.3093
  200THF     H8 3087   1.950   2.136   3.564  0.1035  0.5613 -2.6690
  201THF     C1 3088   0.756   2.039   3.227  0.1628 -0.2797 -0.3450
  201THF     C2 3089   0.865   1.938   3.272  0.0478  1.1651 -0.6064
  201THF     C3 3090   0.762   1.839   3.347 -0.0407 -0.0720 -0.0320
  201THF     O1 3091   0.664   1.815   3.249  0.1256 -0.0777  0.2117
  201THF     C4 3092   0.661   1.930   3.162  0.4349  0.1466 -0.2134
  201THF     H1 3093   0.711   2.089   3.314 -2.3898 -1.4273 -0.9426
  201THF     H2 3094   0.786   2.116   3.157  0.2831 -0.2245 -0.2318
  201THF     H3 3095   0.945   1.973   3.338  1.4322 -0.3917 -1.4199
  201THF     H4 3096   0.911   1.890   3.185 -1.1276 -0.3640 -0.4162
  201THF     H5 3097   0.816   1.745   3.368 -1.0173 -0.6121  0.0916
  201THF     H6 3098   0.726   1.891   3.436  1.6193 -1.0171  1.2094
  201THF     H7 3099   0.701   1.899   3.064 -1.0528  1.5043 -1.2883
  201THF     H8 3100   0.559   1.967   3.146  1.0608  2.4169  0.8677
  202THF     C1 3101   2.207   0.130   2.800  0.1111 -0.6855 -0.0108
  202THF     C2 3102   2.314   0.240   2.836  0.5531  0.2566  0.8451
  202THF     C3 3103   2.247   0.375   2.787  0.6738  0.1180  0.1787
  202THF     O1 3104   2.107   0.344   2.767 -0.3771  0.0938  0.0976
  202THF     C4 3105   2.092   0.203   2.734  0.0007 -0.2963 -0.2816
  202THF     H1 3106   2.250   0.050   2.739  0.2653 -1.6469  1.3462
  202THF     H2 3107   2.182   0.083   2.895  5.0336 -0.2876  1.6263
  202THF     H3 3108   2.410   0.217   2.789 -0.6650 -0.8515 -1.1864
  202THF     H4 3109   2.329   0.234   2.944 -0.0950 -3.7306  0.7932
  202THF     H5 3110   2.254   0.458   2.858  0.7660  2.0867 -2.0919
  202THF     H6 3111   2.290   0.410   2.693  1.3154 -0.2662  0.3262
  202THF     H7 3112   1.993   0.167   2.765  0.1927 -0.6972 -0.1333
  202THF     H8 3113   2.101   0.192   2.625  1.2249  0.0691 -0.2308
  203THF     C1 3114   0.204   0.681   0.543  0.1325 -0.1580  0.6607
  203THF     C2 3115   0.086   0.610   0.467  0.1596  0.6017 -0.3284
  203THF     C3 3116   0.134   0.467   0.452 -0.3010  0.1851  0.1899
  203THF     O1 3117   0.229   0.446   0.561  0.2447  0.0803  0.4494
  203THF     C4 3118   0.300   0.574   0.582  0.0864 -0.0889 -0.2288
  203THF     H1 3119   0.258   0.753   0.479  0.6616 -2.1167 -1.1344
  203THF     H2 3120   0.168   0.742   0.627  0.3769  1.8255 -0.6327
  203THF     H3 3121   0.068   0.641   0.364  0.3606 -2.9193 -1.4791
  203THF     H4 3122  -0.014   0.607   0.512 -0.4461 -1.5156 -1.8019
  203THF     H5 3123   0.052   0.396   0.468 -1.2151  1.6353  2.0998
  203THF     H6 3124   0.188   0.443   0.360  0.3058  1.5428  0.1789
  203THF     H7 3125   0.319   0.582   0.690  2.7483  0.9286 -0.7363
  203THF     H8 3126   0.390   0.574   0.519  0.1044 -1.1403 -0.2114
  204THF     C1 3127   3.331   0.383   2.776 -0.3005 -0.3674 -0.3350
  204THF     C2 3128   3.305   0.453   2.636 -0.3147 -0.1608 -0.3425
  204THF     C3 3129   3.456   0.492   2.600  0.0218 -0.6810  0.4666
  204THF     O1 3130   3.545   0.431   2.693  0.3682  0.0812 -0.4309
  204THF     C4 3131   3.469   0.440   2.819  0.2648 -0.2320  0.5855
  204THF     H1 3132   3.253   0.405   2.849  0.2103  1.6912 -0.3787
  204THF     H2 3133   3.333   0.274   2.765  0.3806 -0.3449 -0.5075
  204THF     H3 3134   3.246   0.543   2.653  1.2269  0.1947  3.6789
  204THF     H4 3135   3.255   0.386   2.566 -1.9870  0.8107 -0.1158
  204THF     H5 3136   3.479   0.462   2.497 -1.4228  3.6562 -1.2608
  204THF     H6 3137   3.475   0.599   2.615  1.8247 -0.7719 -1.0058
  204THF     H7 3138   3.512   0.376   2.897  0.3976  1.2625  1.7464
  204THF     H8 3139   3.474   0.545   2.848 -0.5995 -0.2159  0.6890
  205THF     C1 3140   1.928   1.003   3.095 -1.1695 -0.3366 -0.1255
  205THF     C2 3141   1.814   0.974   3.188  0.0729  0.0686 -0.5475
  205THF     C3 3142   1.853   1.060   3.317 -0.3945  0.8819 -0.0436
  205THF     O1 3143   2.001   1.065   3.308 -0.4946  0.4994 -0.1115
  205THF     C4 3144   2.036   1.090   3.170  0.0791  0.2386 -0.4035
  205THF     H1 3145   1.965   0.911   3.050 -0.2479  0.3191 -0.7158
  205THF     H2 3146   1.891   1.063   3.011 -0.0340  1.7496  0.8313
  205THF     H3 3147   1.809   0.868   3.217 -1.5274  0.7962  2.0327
  205THF     H4 3148   1.711   1.000   3.163  0.9863  2.3117 -2.1489
  205THF     H5 3149   1.809   1.160   3.316  0.6176  1.3146 -1.5077
  205THF     H6 3150   1.833   1.004   3.410  3.1333 -3.3666 -1.6400
  205THF     H7 3151   2.022   1.195   3.143  0.5011  0.1680 -0.8969
  205THF     H8 3152   2.137   1.058   3.141 -1.0194 -1.5326 -2.3694
  206THF     C1 3153   1.921   0.054   2.404 -0.1674 -0.8305 -0.0874
  206THF     C2 3154   2.010  -0.076   2.391  0.2654 -0.0552  0.1325
  206THF     C3 3155   2.025  -0.086   2.231  0.1792  0.2046  0.0382
  206THF     O1 3156   1.983   0.041   2.181 -0.2632  0.5653 -0.1343
  206THF     C4 3157   1.865   0.083   2.260  0.2386 -0.5133  1.0900
  206THF     H1 3158   1.834   0.038   2.469  0.7431  0.7445  1.5680
  206THF     H2 3159   1.968   0.141   2.450 -0.7088 -0.8971  0.6002
  206THF     H3 3160   1.968  -0.162   2.444 -0.9749  0.1279 -0.5308
  206THF     H4 3161   2.104  -0.076   2.448 -0.3411  1.4357  1.1596
  206THF     H5 3162   2.125  -0.112   2.194 -0.1571 -0.6164 -0.3027
  206THF     H6 3163   1.967  -0.171   2.192  0.5587  0.9250 -2.1987
  206THF     H7 3164   1.846   0.188   2.237 -1.1175 -1.2843 -1.4961
  206THF     H8 3165   1.771   0.030   2.238 -0.0660 -0.4626  2.2198
  207THF     C1 3166   0.436   2.899   3.667  0.0634  0.7139 -0.4425
  207THF     C2 3167   0.389   2.752   3.696 -0.4302 -0.2927 -0.2542
  207THF     C3 3168   0.500   2.657   3.640  0.6562 -0.0461 -1.2418
  207THF     O1 3169   0.599   2.747   3.579  0.0052  0.2728  0.1911
  207THF     C4 3170   0.524   2.866   3.548 -0.4890 -0.4944 -0.2638
  207THF     H1 3171   0.361   2.977   3.650 -0.3622  0.3455 -0.2864
  207THF     H2 3172   0.504   2.928   3.748 -1.0496 -1.4222  1.3235
  207THF     H3 3173   0.289   2.733   3.657  0.6316  1.2780 -3.9693
  207THF     H4 3174   0.377   2.731   3.803  0.8221 -0.7280 -0.1852
  207THF     H5 3175   0.537   2.582   3.711  2.4769  1.3491 -0.6594
  207THF     H6 3176   0.458   2.596   3.560 -0.8645  0.3109 -0.7348
  207THF     H7 3177   0.595   2.946   3.523 -1.0235 -0.3584 -1.4038
  207THF     H8 3178   0.458   2.838   3.465  0.2595  0.7328 -1.2893
  208THF     C1 3179   0.293   1.458   2.310 -0.7714  0.0907  0.4896
  208THF     C2 3180   0.293   1.302   2.297 -0.4370 -0.6086 -0.1291
  208THF     C3 3181   0.437   1.269   2.246 -0.2577  0.3099 -0.0297
  208THF     O1 3182   0.466   1.385   2.165  0.4593  0.6554  0.4725
  208THF     C4 3183   0.434   1.502   2.248 -0.0638  0.5688 -0.5335
  208THF     H1 3184   0.203   1.497   2.261 -1.0932 -0.4909  0.6166
  208THF     H2 3185   0.289   1.502   2.410 -2.6899  2.4703 -0.5762
  208THF     H3 3186   0.209   1.266   2.236 -1.3826  0.8268  0.2837
  208THF     H4 3187   0.281   1.251   2.393  0.8675  3.8589  2.5200
  208THF     H5 3188   0.509   1.270   2.329  1.6348 -0.0650 -1.6175
  208THF     H6 3189   0.446   1.178   2.185  0.0092 -0.2354  0.8267
  208THF     H7 3190   0.509   1.512   2.327  1.3086 -2.8660 -1.2970
  208THF     H8 3191   0.424   1.595   2.189 -1.1688  0.7543 -0.0716
  209THF     C1 3192   0.324   1.086   2.661  0.7987 -0.6375 -1.0953
  209THF     C2 3193   0.363   1.217   2.728 -0.4696 -0.4077  0.0669
  209THF     C3 3194   0.309   1.189   2.869  0.0750 -0.4119  0.1650
  209THF     O1 3195   0.355   1.058   2.896  0.0060 -0.0344  0.1939
  209THF     C4 3196   0.349   0.986   2.778  0.0205  0.3442 -0.7519
  209THF     H1 3197   0.221   1.075   2.625 -0.0394 -0.1297  1.0942
  209THF     H2 3198   0.392   1.076   2.575  0.1262 -1.1222 -1.5813
  209THF     H3 3199   0.316   1.305   2.683 -0.5973  0.9114  2.6882
  209THF     H4 3200   0.469   1.245   2.730 -1.0651  2.0354 -0.0059
  209THF     H5 3201   0.357   1.260   2.938  0.3983 -0.9395  0.4828
  209THF     H6 3202   0.200   1.192   2.873  0.0334  0.8318 -1.2538
  209THF     H7 3203   0.442   0.930   2.764 -0.9815 -1.2748 -1.1286
  209THF     H8 3204   0.275   0.905   2.785  1.9627 -1.5274 -1.2486
  210THF     C1 3205   3.092   0.890   3.249 -0.2016  0.6490  0.4315
  210THF     C2 3206   3.083   0.894   3.407 -0.2885  0.0205  0.1047
  210THF     C3 3207   2.947   0.840   3.437  0.2334 -0.2575 -0.0918
  210THF     O1 3208   2.928   0.738   3.332 -0.5169 -0.0137 -0.2459
  210THF     C4 3209   2.969   0.795   3.210 -0.9105  0.1179  0.1088
  210THF     H1 3210   3.073   0.992   3.215  1.0351  1.1220  1.1440
  210THF     H2 3211   3.195   0.867   3.222 -0.2399 -0.2525  1.0115
  210THF     H3 3212   3.107   0.986   3.461 -2.3569 -0.4998  2.0107
  210THF     H4 3213   3.150   0.827   3.461  0.1158  0.0610 -0.3424
  210THF     H5 3214   2.933   0.784   3.530 -0.2121  0.3352  0.2071
  210THF     H6 3215   2.878   0.926   3.436 -0.8005 -1.0384  1.5117
  210THF     H7 3216   3.003   0.714   3.144  0.0886  1.1072 -0.6185
  210THF     H8 3217   2.882   0.842   3.163 -1.0701 -0.1248  0.1592
  211THF     C1 3218   0.347   0.078   2.688 -0.0585  0.2789  0.2708
  211THF     C2 3219   0.277  -0.056   2.681  0.0426  0.1088 -1.3580
  211THF     C3 3220   0.376  -0.135   2.593  0.1789  0.0684 -0.3040
  211THF     O1 3221   0.459  -0.045   2.528 -0.1034 -0.0811 -0.3101
  211THF     C4 3222   0.486   0.047   2.623  1.0190 -0.5251 -0.3573
  211THF     H1 3223   0.283   0.150   2.637 -0.0449 -0.3312 -0.6139
  211THF     H2 3224   0.360   0.112   2.791  1.1875 -0.4245  0.3614
  211THF     H3 3225   0.181  -0.048   2.628  0.0986 -1.1472 -1.6685
  211THF     H4 3226   0.256  -0.096   2.781  0.6546 -0.0834 -1.3073
  211THF     H5 3227   0.436  -0.194   2.664  1.6021  1.9581  0.1206
  211THF     H6 3228   0.322  -0.198   2.521 -2.0637  1.7812 -0.1645
  211THF     H7 3229   0.562   0.017   2.697  0.0754 -0.7339  0.5501
  211THF     H8 3230   0.516   0.140   2.574  0.7869 -0.2482  0.0182
  212THF     C1 3231   1.515   3.015   2.287  0.4976 -0.0148 -0.3471
  212THF     C2 3232   1.375   2.957   2.254 -0.1858  0.3689  0.2863
  212THF     C3 3233   1.319   2.947   2.401  0.2552 -0.3228 -0.0270
  212THF     O1 3234   1.423   2.990   2.495 -0.2052 -0.3343  0.1641
  212THF     C4 3235   1.545   2.970   2.431  0.5930 -0.0786 -0.7370
  212THF     H1 3236   1.584   2.969   2.215 -0.3104 -0.2499 -0.9794
  212THF     H2 3237   1.503   3.124   2.282  1.1636  0.0881  0.2487
  212THF     H3 3238   1.385   2.859   2.208 -2.0177 -0.0167  0.7004
  212THF     H4 3239   1.317   3.025   2.190  0.9978  0.9855 -0.1556
  212THF     H5 3240   1.230   3.011   2.404 -1.1053 -2.0781 -1.4197
  212THF     H6 3241   1.283   2.846   2.426 -2.7769  0.6842 -0.1641
  212THF     H7 3242   1.626   3.025   2.481 -0.9422  1.9952 -0.4664
  212THF     H8 3243   1.565   2.863   2.426  2.4517  0.1945  0.3583
  213THF     C1 3244   2.789   2.523   2.923 -0.1153 -0.3405 -0.9305
  213THF     C2 3245   2.684   2.523   3.029 -0.0901 -0.3084  0.1429
  213THF     C3 3246   2.560   2.467   2.953  0.1294 -0.3384  0.9378
  213THF     O1 3247   2.591   2.496   2.811 -0.2573 -0.4158  0.2699
  213THF     C4 3248   2.724   2.457   2.802  0.4650  0.6665 -0.6937
  213THF     H1 3249   2.817   2.627   2.901  2.0533 -0.7041 -0.0166
  213THF     H2 3250   2.879   2.470   2.956 -0.0579 -0.3256 -1.0638
  213THF     H3 3251   2.672   2.627   3.063 -1.3492 -0.0548 -1.0151
  213THF     H4 3252   2.719   2.465   3.115 -0.0548  1.0484  1.0547
  213THF     H5 3253   2.537   2.362   2.972  0.6313 -0.4813  0.7484
  213THF     H6 3254   2.470   2.525   2.980 -0.9386 -2.1167  1.2510
  213THF     H7 3255   2.721   2.347   2.804 -1.0239  0.7123  0.2604
  213THF     H8 3256   2.776   2.506   2.718  2.0814  0.5315  0.2027
  214THF     C1 3257   2.722   1.973   2.393 -0.1555  0.1961 -0.2502
  214THF     C2 3258   2.857   2.021   2.459 -0.1006 -0.1922 -0.2112
  214THF     C3 3259   2.951   2.048   2.339  0.0563  0.1830 -0.5401
  214THF     O1 3260   2.857   2.052   2.220 -0.3686  0.2179 -0.2203
  214THF     C4 3261   2.727   2.043   2.261  0.2414  0.2713 -0.3225
  214THF     H1 3262   2.709   1.865   2.379  0.1995  0.1557 -0.2735
  214THF     H2 3263   2.635   1.997   2.455 -0.5547 -0.0452 -0.7090
  214THF     H3 3264   2.894   1.938   2.521  0.9242  0.4573  0.0544
  214THF     H4 3265   2.845   2.105   2.527 -0.1882 -0.2810 -0.1164
  214THF     H5 3266   3.008   2.142   2.352 -2.1785  1.6217 -0.9320
  214THF     H6 3267   3.025   1.970   2.317 -0.4027  0.4826 -3.3041
  214THF     H7 3268   2.688   2.145   2.273 -0.3137 -0.0266  0.4363
  214THF     H8 3269   2.667   1.998   2.180 -0.3184  0.7184 -0.1595
  215THF     C1 3270   0.487   0.573   3.518  0.0966  0.2862  0.3930
  215THF     C2 3271   0.398   0.624   3.641  0.4080  0.1249 -0.5616
  215THF     C3 3272   0.346   0.486   3.699  0.7502 -0.4782  0.7559
  215THF     O1 3273   0.358   0.399   3.590  0.6738 -0.2237 -0.3414
  215THF     C4 3274   0.479   0.415   3.524  0.0545  0.3674 -0.0521
  215THF     H1 3275   0.451   0.606   3.419 -2.0261 -0.6023  0.8286
  215THF     H2 3276   0.586   0.616   3.530  1.2363 -1.6244 -1.7817
  215THF     H3 3277   0.311   0.685   3.612  1.8268  2.3205 -0.3502
  215THF     H4 3278   0.454   0.684   3.713  1.0155  2.5790 -2.9747
  215THF     H5 3279   0.403   0.457   3.789 -1.2985  0.0245  2.2579
  215THF     H6 3280   0.242   0.491   3.733  0.4402 -3.0585  0.3203
  215THF     H7 3281   0.565   0.379   3.582  0.3693  2.1203  0.6099
  215THF     H8 3282   0.475   0.358   3.431  0.7163 -0.6695  0.5494
  216THF     C1 3283   2.170   0.489   2.318 -0.6492  0.2412 -0.5277
  216THF     C2 3284   2.063   0.585   2.276 -0.6987 -0.3303 -0.0570
  216THF     C3 3285   1.939   0.527   2.335 -0.2833 -1.3872  0.3408
  216THF     O1 3286   1.968   0.386   2.342  0.2852  0.6932 -0.5220
  216THF     C4 3287   2.101   0.359   2.292  1.1796 -0.4961 -0.2442
  216THF     H1 3288   2.256   0.486   2.251 -0.3554  1.4758 -0.2137
  216THF     H2 3289   2.211   0.488   2.420 -2.9204  0.8143  0.4382
  216THF     H3 3290   2.063   0.583   2.167  1.2922 -3.1803 -0.0489
  216THF     H4 3291   2.078   0.689   2.307  2.6663 -0.2927 -1.6804
  216THF     H5 3292   1.918   0.580   2.430  1.5539  0.2422 -0.1276
  216THF     H6 3293   1.847   0.545   2.278 -0.0569  0.7587  0.6007
  216THF     H7 3294   2.142   0.269   2.341  0.1659 -1.2247 -0.6956
  216THF     H8 3295   2.096   0.339   2.184 -1.1430  0.8444 -0.4142
  217THF     C1 3296   1.879   1.488   3.282  0.2587 -0.0041 -0.4336
  217THF     C2 3297   1.760   1.584   3.243 -0.3312  0.1883 -0.0871
  217THF     C3 3298   1.840   1.718   3.203  0.1220  0.3703  0.1118
  217THF     O1 3299   1.983   1.684   3.215  0.2168  0.0214  0.5849
  217THF     C4 3300   1.994   1.546   3.196  0.6406  0.3810  0.4348
  217THF     H1 3301   1.902   1.486   3.390 -1.3247  0.2619 -0.0744
  217THF     H2 3302   1.847   1.387   3.256 -0.2775 -0.1038  0.5789
  217THF     H3 3303   1.691   1.601   3.326  1.3102  0.4655  1.2319
  217THF     H4 3304   1.711   1.538   3.156  0.7140 -1.7801  0.3393
  217THF     H5 3305   1.819   1.755   3.102  0.0306  1.6877  0.6120
  217THF     H6 3306   1.823   1.802   3.271  1.2364 -0.6460  1.6742
  217THF     H7 3307   1.971   1.521   3.092  1.8413  2.0697 -0.2511
  217THF     H8 3308   2.095   1.513   3.225  0.9826  2.0462  1.2129
  218THF     C1 3309   1.547   3.201   2.832 -0.0421 -0.1701 -0.2005
  218THF     C2 3310   1.632   3.278   2.940 -0.5408  0.1830 -0.3352
  218THF     C3 3311   1.735   3.352   2.847  0.0376 -0.5030  0.6012
  218THF     O1 3312   1.693   3.337   2.712  0.9907 -0.2478  0.3131
  218THF     C4 3313   1.623   3.215   2.701  0.0627  0.7197 -0.0250
  218THF     H1 3314   1.533   3.098   2.866  1.0399 -0.1789  0.2395
  218THF     H2 3315   1.453   3.258   2.825 -0.8534 -1.4551 -0.0454
  218THF     H3 3316   1.669   3.224   3.027  0.8948 -0.7480 -1.4894
  218THF     H4 3317   1.563   3.346   2.990  0.4079  3.8056 -3.6570
  218THF     H5 3318   1.731   3.456   2.883  0.3794 -1.2090  2.7458
  218THF     H6 3319   1.835   3.312   2.868  1.0898  0.6005 -2.0826
  218THF     H7 3320   1.544   3.218   2.624  0.8107 -0.5987 -0.8607
  218THF     H8 3321   1.690   3.129   2.697 -0.0019  0.6436  0.4402
  219THF     C1 3322   1.154   3.090   2.880 -0.1401 -0.7156  1.2683
  219THF     C2 3323   1.004   3.134   2.872 -1.0862 -0.1977  0.6786
  219THF     C3 3324   0.941   3.064   2.754  0.4855 -0.4839  0.1602
  219THF     O1 3325   1.041   2.986   2.693  0.0584  0.4519  0.3609
  219THF     C4 3326   1.165   3.051   2.729 -0.0101 -0.2963  0.3031
  219THF     H1 3327   1.226   3.167   2.908 -0.1346 -0.2693  0.0641
  219THF     H2 3328   1.179   3.002   2.940  0.1892 -0.5724  1.3412
  219THF     H3 3329   1.009   3.239   2.841  0.6543 -0.6306 -0.5435
  219THF     H4 3330   0.941   3.126   2.962  2.5501 -2.4974  3.1424
  219THF     H5 3331   0.852   3.008   2.785 -1.1206  2.8744  1.9286
  219THF     H6 3332   0.903   3.135   2.678 -2.9041 -0.0515  2.1365
  219THF     H7 3333   1.258   2.993   2.718  1.3188  2.0431 -1.0595
  219THF     H8 3334   1.172   3.139   2.665 -2.3490  0.5574  1.1799
  220THF     C1 3335   3.277   2.192   1.299 -0.3815 -0.3558 -0.3807
  220THF     C2 3336   3.225   2.280   1.174 -0.5154 -0.1459  0.3400
  220THF     C3 3337   3.180   2.403   1.242 -0.1980  0.2647 -0.7470
  220THF     O1 3338   3.120   2.354   1.364 -0.1935  0.0628 -0.6770
  220THF     C4 3339   3.169   2.226   1.405  0.0077  0.1401  0.8595
  220THF     H1 3340   3.278   2.083   1.290  0.1564 -0.4409  0.6152
  220THF     H2 3341   3.374   2.230   1.335 -1.7128  2.2683  0.5950
  220THF     H3 3342   3.144   2.230   1.119  1.1609 -0.3683 -1.9632
  220THF     H4 3343   3.311   2.302   1.110 -1.5889 -1.5310 -1.6248
  220THF     H5 3344   3.262   2.473   1.266 -0.2176  0.3587 -0.9540
  220THF     H6 3345   3.102   2.460   1.190 -2.4397  0.9231  3.0809
  220THF     H7 3346   3.216   2.234   1.504  1.2727  1.8804  0.1525
  220THF     H8 3347   3.085   2.157   1.412 -0.5181  0.5974 -0.7484
  221THF     C1 3348   2.375   1.478   3.393  0.2715  0.2882 -0.3439
  221THF     C2 3349   2.490   1.552   3.326  0.2198 -0.9614  0.2132
  221THF     C3 3350   2.430   1.569   3.186  0.2135  0.9628  0.5497
  221THF     O1 3351   2.340   1.460   3.158 -0.5704  0.4009 -0.3349
  221THF     C4 3352   2.332   1.378   3.275 -0.3322  0.0033  0.2448
  221THF     H1 3353   2.392   1.428   3.489 -1.2443 -0.0922 -0.2676
  221THF     H2 3354   2.291   1.542   3.422 -1.7237 -2.8054  0.8675
  221THF     H3 3355   2.576   1.484   3.329  0.3160 -0.8420  0.1531
  221THF     H4 3356   2.511   1.647   3.377  1.3993 -1.1803  0.1706
  221THF     H5 3357   2.361   1.655   3.182 -0.6009  0.2978  0.0065
  221THF     H6 3358   2.507   1.580   3.110  0.3473  2.3060  0.8754
  221THF     H7 3359   2.227   1.348   3.276 -0.0962 -0.9254 -1.2480
  221THF     H8 3360   2.405   1.297   3.272  0.5049  0.7102  1.0638
  222THF     C1 3361   1.431   3.373   3.422  0.0965 -0.7711  0.8174
  222THF     C2 3362   1.447   3.272   3.538  0.2736  0.3266 -0.2747
  222THF     C3 3363   1.555   3.182   3.480  0.0771  0.4105 -0.1013
  222THF     O1 3364   1.540   3.175   3.330 -0.9360  0.1786 -0.7698
  222THF     C4 3365   1.452   3.280   3.292 -0.1083  0.1661 -0.2474
  222THF     H1 3366   1.335   3.426   3.425 -1.1681 -3.0051  5.5234
  222THF     H2 3367   1.508   3.450   3.428  0.1682 -0.8478  0.8897
  222THF     H3 3368   1.355   3.216   3.557 -0.2373  1.0889 -0.4837
  222THF     H4 3369   1.475   3.322   3.631 -1.0117  3.4266 -1.4805
  222THF     H5 3370   1.653   3.230   3.492  0.7884 -1.1927  0.5888
  222THF     H6 3371   1.556   3.079   3.518 -1.2937  0.1638 -0.6787
  222THF     H7 3372   1.493   3.343   3.211 -0.0450  0.0141 -0.3326
  222THF     H8 3373   1.353   3.237   3.269 -0.0695 -0.1864  0.2603
  223THF     C1 3374   1.442   1.704   3.028  0.4986 -0.4371  0.5776
  223THF     C2 3375   1.536   1.795   2.945 -0.3591  0.2019 -0.5462
  223THF     C3 3376   1.517   1.929   3.024  0.1237  0.1224 -0.4377
  223THF     O1 3377   1.529   1.881   3.157  0.4379  0.8539 -0.0154
  223THF     C4 3378   1.459   1.762   3.172 -0.4107 -0.2951  1.4090
  223THF     H1 3379   1.337   1.712   3.001  0.4661 -2.8907 -0.1275
  223THF     H2 3380   1.472   1.598   3.032  0.8007 -0.3107  2.2690
  223THF     H3 3381   1.512   1.812   2.839 -0.9421  0.4142 -0.3833
  223THF     H4 3382   1.644   1.782   2.952 -0.2120  0.2724 -2.3792
  223THF     H5 3383   1.587   2.011   3.004 -0.1473  1.0265  2.1702
  223THF     H6 3384   1.415   1.968   3.014  0.7013  1.6236 -0.5325
  223THF     H7 3385   1.515   1.695   3.239  2.2055  1.7162  1.2701
  223THF     H8 3386   1.368   1.781   3.231 -1.3152 -0.9679  0.2720
  224THF     C1 3387   0.908   2.567   3.295 -0.0336  1.0523 -0.2998
  224THF     C2 3388   0.770   2.532   3.239  0.4765 -0.0324 -0.1054
  224THF     C3 3389   0.709   2.672   3.232 -0.5624  0.1875  0.0648
  224THF     O1 3390   0.816   2.754   3.183 -0.1015  0.1398 -0.4181
  224THF     C4 3391   0.941   2.702   3.218  0.0306 -0.5527 -0.0695
  224THF     H1 3392   0.916   2.571   3.404 -0.2237 -1.8703 -0.1508
  224THF     H2 3393   0.979   2.491   3.264 -0.3757  0.2948  0.7302
  224THF     H3 3394   0.726   2.451   3.298  1.4009 -0.3170  0.2068
  224THF     H4 3395   0.780   2.497   3.135  1.0505  2.1657 -0.8195
  224THF     H5 3396   0.626   2.682   3.161 -0.2380 -0.2507 -0.3761
  224THF     H6 3397   0.675   2.706   3.331 -0.2228  1.7961 -0.3598
  224THF     H7 3398   1.007   2.695   3.131 -1.0861  2.4142 -1.2120
  224THF     H8 3399   0.985   2.778   3.284  1.7290  0.7228 -2.5772
  225THF     C1 3400   1.907   2.214   2.291  0.5164 -0.0429 -0.1159
  225THF     C2 3401   1.767   2.279   2.279  0.4461  0.5984  0.2546
  225THF     C3 3402   1.666   2.165   2.303  0.2988 -0.0749  0.0402
  225THF     O1 3403   1.733   2.076   2.397  0.2429  0.2079  0.1013
  225THF     C4 3404   1.874   2.130   2.419  0.5805  0.4198 -0.0849
  225THF     H1 3405   1.930   2.150   2.205 -1.2331  0.4924 -0.9993
  225THF     H2 3406   1.987   2.286   2.307 -1.4357  2.5275 -1.5536
  225THF     H3 3407   1.747   2.317   2.178  1.6854 -1.1245 -0.6833
  225THF     H4 3408   1.750   2.356   2.354  1.3536 -0.4872  1.5972
  225THF     H5 3409   1.571   2.198   2.348 -0.3696  0.9768 -2.1007
  225THF     H6 3410   1.652   2.106   2.212 -0.1028 -2.6350  1.6925
  225THF     H7 3411   1.877   2.199   2.505  3.1095 -0.8767  0.9147
  225THF     H8 3412   1.950   2.054   2.439 -2.0052 -1.8093  1.6934
  226THF     C1 3413   2.024   2.832   2.740  0.2766 -0.5042  0.0664
  226THF     C2 3414   2.145   2.814   2.832  0.6193  0.3115 -0.8092
  226THF     C3 3415   2.156   2.949   2.908  0.2964 -0.1158  0.3968
  226THF     O1 3416   2.120   3.044   2.806  1.1699  0.3422 -0.1530
  226THF     C4 3417   2.009   2.982   2.727  0.0581  0.8289  0.5311
  226THF     H1 3418   2.031   2.790   2.639 -0.3986  1.4777 -0.8430
  226THF     H2 3419   1.925   2.797   2.772 -0.0247  0.4778  0.2302
  226THF     H3 3420   2.238   2.802   2.774  0.3418  0.7617 -1.3577
  226THF     H4 3421   2.132   2.722   2.890 -3.3274  1.3726  0.1069
  226THF     H5 3422   2.084   2.967   2.989 -1.5955  1.0305 -1.4884
  226THF     H6 3423   2.255   2.972   2.948 -0.2507  1.6542  0.7564
  226THF     H7 3424   1.914   3.018   2.768 -0.6008 -0.1748 -0.1034
  226THF     H8 3425   2.010   3.021   2.625  0.3391 -0.6260 -0.0263
  227THF     C1 3426   2.854   2.486   2.327  0.6490  0.2971  0.1842
  227THF     C2 3427   2.822   2.553   2.454 -0.4499 -0.1792  0.9711
  227THF     C3 3428   2.770   2.692   2.408 -0.3445  0.1565 -0.3578
  227THF     O1 3429   2.683   2.654   2.299  0.0472 -0.5121  0.5999
  227THF     C4 3430   2.765   2.563   2.222  0.1427 -0.7124  0.4894
  227THF     H1 3431   2.960   2.495   2.302  0.6819  1.3641  0.6964
  227THF     H2 3432   2.831   2.379   2.336 -3.7990  1.2251  1.3035
  227THF     H3 3433   2.903   2.553   2.528 -0.0998  1.9570  0.6310
  227THF     H4 3434   2.741   2.496   2.501  0.5883 -2.6048 -0.1330
  227THF     H5 3435   2.705   2.750   2.475 -1.9463 -0.3392 -1.4535
  227THF     H6 3436   2.852   2.758   2.376 -1.5108  1.0925 -1.4847
  227THF     H7 3437   2.699   2.505   2.156  0.6348  0.9165 -1.4765
  227THF     H8 3438   2.830   2.622   2.156 -1.4466  1.5600  0.8993
  228THF     C1 3439   1.933   2.825   3.551  0.2527 -0.5452  0.6071
  228THF     C2 3440   1.852   2.691   3.541 -0.0520  0.3114  0.2537
  228THF     C3 3441   1.727   2.708   3.632 -0.0342  0.2826 -0.1544
  228THF     O1 3442   1.749   2.833   3.704  0.1917 -0.6204  0.9523
  228THF     C4 3443   1.827   2.918   3.621  0.7024 -0.5870 -0.5846
  228THF     H1 3444   2.013   2.808   3.623  1.3860  0.1001 -0.4770
  228THF     H2 3445   1.958   2.875   3.457 -2.4955  0.9326  0.6117
  228THF     H3 3446   1.912   2.609   3.580 -0.8421 -0.3402  0.1227
  228THF     H4 3447   1.821   2.676   3.437  0.3251 -2.6552  0.5471
  228THF     H5 3448   1.635   2.719   3.574  0.6616  0.4896 -1.2227
  228THF     H6 3449   1.719   2.625   3.703 -0.0569  0.6359  0.2619
  228THF     H7 3450   1.764   2.963   3.542 -0.7403  0.3639  1.0814
  228THF     H8 3451   1.871   2.999   3.681 -0.7670  1.1418 -1.7590
  229THF     C1 3452   2.814   0.479   2.844  0.0138 -0.1049 -0.1387
  229THF     C2 3453   2.916   0.595   2.865 -0.4124  0.0297  0.0821
  229THF     C3 3454   2.927   0.639   2.718 -0.2175 -0.1371 -0.5002
  229THF     O1 3455   2.955   0.511   2.661  0.5138 -0.3614 -0.2689
  229THF     C4 3456   2.844   0.427   2.704 -0.1876 -0.1775 -0.8547
  229THF     H1 3457   2.812   0.400   2.920 -3.2971  0.7224  0.7210
  229THF     H2 3458   2.712   0.516   2.829  0.1716  0.6516  0.6003
  229THF     H3 3459   3.018   0.577   2.901 -0.4107 -1.2205 -0.5080
  229THF     H4 3460   2.877   0.676   2.927  0.5079  3.0287 -3.0998
  229THF     H5 3461   2.833   0.677   2.674  0.3044  0.1806 -1.3627
  229THF     H6 3462   3.015   0.704   2.712  1.1385 -1.8235  0.7545
  229THF     H7 3463   2.755   0.437   2.641 -0.6642  0.0938 -0.1509
  229THF     H8 3464   2.882   0.324   2.704  0.0640 -0.1122  1.4648
  230THF     C1 3465   1.161   0.373   0.033 -0.5687 -0.1658  0.6727
  230THF     C2 3466   1.264   0.281   0.090 -0.1333  0.3881  0.1158
  230THF     C3 3467   1.266   0.176  -0.024 -0.3633  0.4529  0.1275
  230THF     O1 3468   1.254   0.255  -0.141  0.5890  0.5087 -0.2724
  230THF     C4 3469   1.183   0.379  -0.118  0.0126 -0.0253  0.0038
  230THF     H1 3470   1.057   0.353   0.060 -0.2622  0.4062  2.3299
  230THF     H2 3471   1.165   0.467   0.089 -0.4739 -0.2301  0.7749
  230THF     H3 3472   1.242   0.240   0.189  0.9729  3.1429  1.5448
  230THF     H4 3473   1.362   0.329   0.096 -0.6023  1.1987  1.2996
  230THF     H5 3474   1.367   0.133  -0.017 -0.1608  0.9944  0.5635
  230THF     H6 3475   1.183   0.104  -0.014 -2.6453  2.9244 -0.3836
  230THF     H7 3476   1.253   0.462  -0.132 -0.5091  0.3820 -0.2316
  230THF     H8 3477   1.089   0.396  -0.173 -0.1398  2.0852  0.8537
  231THF     C1 3478   0.192   2.210   0.632  0.4097 -0.4254 -0.2388
  231THF     C2 3479   0.319   2.295   0.630  0.1407  0.4200  0.0396
  231THF     C3 3480   0.412   2.208   0.721 -0.4432  0.1235  0.7138
  231THF     O1 3481   0.375   2.073   0.701  0.6279 -0.8972 -0.0875
  231THF     C4 3482   0.261   2.078   0.614 -0.1080 -1.2825  0.1587
  231THF     H1 3483   0.129   2.218   0.721  2.2612 -1.1026  1.1599
  231THF     H2 3484   0.136   2.232   0.540 -0.7815  1.0001  0.7748
  231THF     H3 3485   0.300   2.395   0.671  1.1710 -0.1504  1.9786
  231THF     H4 3486   0.356   2.310   0.529 -0.2921  0.9686 -0.0382
  231THF     H5 3487   0.511   2.238   0.684 -1.1086  2.3973  0.7293
  231THF     H6 3488   0.403   2.234   0.827  1.4479  0.1324  0.9018
  231THF     H7 3489   0.297   2.061   0.512 -0.8895 -1.2412 -0.1336
  231THF     H8 3490   0.196   1.991   0.630 -1.4543 -0.6851 -1.8657
  232THF     C1 3491   0.953   0.286   2.293  0.0572  0.7069 -0.2431
  232THF     C2 3492   0.817   0.356   2.314  0.6982  0.6058 -0.3120
  232THF     C3 3493   0.836   0.507   2.310  0.2071  0.3600 -0.5812
  232THF     O1 3494   0.956   0.517   2.231  0.6932  0.2231  0.1111
  232THF     C4 3495   1.041   0.405   2.260 -0.2281 -0.0857 -0.2146
  232THF     H1 3496   0.978   0.246   2.391 -0.0078  0.5289 -0.2992
  232THF     H2 3497   0.955   0.203   2.221 -0.2642  1.0869 -0.6936
  232THF     H3 3498   0.763   0.334   2.407  2.5556  2.0182  1.1309
  232THF     H4 3499   0.750   0.323   2.233  0.9705 -0.8999  0.0560
  232THF     H5 3500   0.751   0.565   2.273 -1.0113 -0.4193  0.9063
  232THF     H6 3501   0.859   0.529   2.415 -2.1885 -2.9223  0.7171
  232THF     H7 3502   1.114   0.391   2.178 -0.0482 -0.0945 -0.0523
  232THF     H8 3503   1.101   0.424   2.350 -0.6720 -2.0827  0.5232
  233THF     C1 3504   2.333   2.212   0.212  0.0214 -0.1348  0.2693
  233THF     C2 3505   2.356   2.352   0.272 -0.3051 -0.1596  0.7879
  233THF     C3 3506   2.470   2.410   0.176  0.0983 -0.4212 -0.3038
  233THF     O1 3507   2.439   2.348   0.047 -0.1222  0.0236 -0.3592
  233THF     C4 3508   2.432   2.211   0.091 -0.6279  0.3061  0.3292
  233THF     H1 3509   2.357   2.135   0.286  0.8336  0.6639  0.8450
  233THF     H2 3510   2.233   2.205   0.167 -0.0605  0.0092  0.4282
  233THF     H3 3511   2.391   2.341   0.375  2.7854 -0.2583 -0.2188
  233THF     H4 3512   2.260   2.405   0.267 -0.0480  0.1475 -1.3566
  233THF     H5 3513   2.462   2.520   0.177 -0.8168 -0.4820  1.0205
  233THF     H6 3514   2.572   2.380   0.203  0.7772  2.3284  0.4186
  233THF     H7 3515   2.408   2.144   0.008 -3.1645 -1.4266  2.3871
  233THF     H8 3516   2.534   2.184   0.121  0.1102  1.3616 -1.1688
  234THF     C1 3517   2.588   1.402   2.418  0.6183 -0.2355  0.8898
  234THF     C2 3518   2.545   1.552   2.399 -0.6199 -0.4722 -0.1903
  234THF     C3 3519   2.537   1.568   2.247 -0.3733  0.1300  0.3784
  234THF     O1 3520   2.567   1.436   2.196 -0.1197  0.2958  0.0792
  234THF     C4 3521   2.664   1.381   2.282 -0.0645  0.4582  0.6319
  234THF     H1 3522   2.643   1.372   2.508  0.3523  1.7747  1.7575
  234THF     H2 3523   2.499   1.339   2.430  0.5914 -0.1651  1.0699
  234THF     H3 3524   2.629   1.611   2.437  0.2969 -2.4893  1.0343
  234THF     H4 3525   2.465   1.587   2.466  1.6019 -0.6981  2.7179
  234THF     H5 3526   2.445   1.617   2.212  0.7598  3.1990  1.4942
  234THF     H6 3527   2.624   1.628   2.218  0.2805 -2.0597 -2.3996
  234THF     H7 3528   2.681   1.274   2.265  0.0167  0.3384  1.4297
  234THF     H8 3529   2.757   1.438   2.267  0.4250 -0.5271 -0.0848
  235THF     C1 3530   0.150   2.332   0.130 -0.0663  0.2230  0.5337
  235THF     C2 3531   0.159   2.371   0.279  0.3754 -0.6372 -0.7057
  235THF     C3 3532   0.248   2.499   0.291  0.6312 -1.0096  0.8475
  235THF     O1 3533   0.338   2.476   0.181 -0.0606  0.3738 -0.3495
  235THF     C4 3534   0.247   2.436   0.067  0.4862  0.1240  0.4458
  235THF     H1 3535   0.198   2.236   0.113 -2.6112 -0.8646 -0.8713
  235THF     H2 3536   0.049   2.322   0.087 -1.0969 -0.2679  2.9887
  235THF     H3 3537   0.211   2.290   0.333  0.3526 -0.8548 -1.0079
  235THF     H4 3538   0.056   2.386   0.315  0.9036 -1.9903  1.5225
  235THF     H5 3539   0.184   2.584   0.264 -0.8303 -1.4984  2.6476
  235THF     H6 3540   0.294   2.512   0.390  0.6306 -2.2851  1.0269
  235THF     H7 3541   0.184   2.522   0.040  0.3291  0.3772  1.5712
  235THF     H8 3542   0.310   2.404  -0.017  0.6247  3.6699 -0.8671
  236THF     C1 3543   0.785   3.196   2.304 -0.6721  0.2532  0.1172
  236THF     C2 3544   0.927   3.252   2.321 -0.4972  0.3022  0.0356
  236THF     C3 3545   0.908   3.387   2.254 -0.0837  0.7051  0.0984
  236THF     O1 3546   0.773   3.430   2.283 -0.4784 -0.4543  0.1618
  236THF     C4 3547   0.702   3.318   2.344 -0.1904  0.3959 -0.2260
  236THF     H1 3548   0.770   3.162   2.200 -0.5869 -0.7179  0.4106
  236THF     H2 3549   0.760   3.112   2.370 -1.3300 -0.9919 -1.6548
  236THF     H3 3550   1.007   3.198   2.268 -0.0316 -1.5025  2.4974
  236THF     H4 3551   0.960   3.259   2.425 -2.3907 -2.3605  0.8737
  236THF     H5 3552   0.983   3.454   2.298  1.2704 -0.2734 -0.6818
  236THF     H6 3553   0.912   3.381   2.145 -2.0733 -1.9305  0.1115
  236THF     H7 3554   0.704   3.333   2.452  0.9756 -4.1793  0.4897
  236THF     H8 3555   0.598   3.317   2.309 -0.7669  2.5990  1.3171
  237THF     C1 3556   0.555   2.185   2.859 -0.5876 -0.2254  0.2447
  237THF     C2 3557   0.402   2.199   2.821  0.4410  0.2318  0.3986
  237THF     C3 3558   0.372   2.052   2.807  0.4391  0.6882  0.7070
  237THF     O1 3559   0.483   1.985   2.748 -0.1192  0.0919  0.4145
  237THF     C4 3560   0.591   2.083   2.743  0.6184 -0.4086 -0.3006
  237THF     H1 3561   0.596   2.285   2.843 -0.9384 -0.0936  0.1460
  237THF     H2 3562   0.577   2.174   2.965  0.1171  2.1917  0.3552
  237THF     H3 3563   0.379   2.256   2.730  0.8401  0.8569  0.6858
  237THF     H4 3564   0.341   2.232   2.906 -1.2893 -1.1281 -0.2968
  237THF     H5 3565   0.364   2.006   2.906 -1.6079  0.4727  0.4487
  237THF     H6 3566   0.277   2.028   2.758  2.0149 -0.6728 -1.7711
  237THF     H7 3567   0.686   2.031   2.758  0.2348 -1.4298 -1.3907
  237THF     H8 3568   0.604   2.129   2.643  0.1633  2.9583  1.1074
  238THF     C1 3569   1.169   1.903   2.313  0.1509 -0.0798  0.3496
  238THF     C2 3570   1.283   1.999   2.272 -0.2470  0.1816 -0.4931
  238THF     C3 3571   1.404   1.902   2.271 -0.1511 -0.9253  0.2580
  238THF     O1 3572   1.354   1.779   2.322  0.0336  0.7803  0.1195
  238THF     C4 3573   1.226   1.763   2.266  0.0251 -0.6791 -0.1700
  238THF     H1 3574   1.149   1.906   2.420 -1.9836 -2.2446  0.0450
  238THF     H2 3575   1.074   1.944   2.276  0.9462  0.7901 -0.7771
  238THF     H3 3576   1.302   2.071   2.352  0.0112 -0.9982  0.5159
  238THF     H4 3577   1.272   2.054   2.178 -3.4372  0.3083 -0.0922
  238THF     H5 3578   1.456   1.896   2.174 -0.0922  1.4831  0.1319
  238THF     H6 3579   1.477   1.940   2.343 -0.9191 -1.4512  1.3393
  238THF     H7 3580   1.225   1.751   2.157  0.8586  0.7241 -0.3440
  238THF     H8 3581   1.174   1.687   2.326  1.1108 -1.0754  0.3027
  239THF     C1 3582   2.083   1.369   2.268  0.4480  0.5360  0.1980
  239THF     C2 3583   2.217   1.456   2.270  0.7023  0.1922 -0.4260
  239THF     C3 3584   2.172   1.599   2.296 -0.2753  0.2683 -0.4876
  239THF     O1 3585   2.045   1.599   2.245 -0.1659  0.8458 -0.2954
  239THF     C4 3586   1.976   1.481   2.282  0.0300 -0.2681  0.8321
  239THF     H1 3587   2.076   1.320   2.170 -0.8371  1.1348 -0.0267
  239THF     H2 3588   2.078   1.301   2.353 -1.4631 -0.7937 -0.9278
  239THF     H3 3589   2.278   1.451   2.179  1.7938  0.9881  0.2606
  239THF     H4 3590   2.287   1.425   2.348 -0.0901 -0.4275  0.0468
  239THF     H5 3591   2.158   1.627   2.401  0.4312  0.1901 -0.3707
  239THF     H6 3592   2.224   1.682   2.246 -0.3466  1.6397  1.6327
  239THF     H7 3593   1.937   1.495   2.383  0.0187 -1.8704  1.0690
  239THF     H8 3594   1.885   1.472   2.221 -0.0848  2.0351  0.6158
  240THF     C1 3595   2.302   0.211   3.452 -0.3637 -0.0114  0.6151
  240THF     C2 3596   2.243   0.280   3.573 -0.0857  0.4529 -0.0724
  240THF     C3 3597   2.311   0.206   3.697 -0.1725  0.5074  0.2861
  240THF     O1 3598   2.372   0.087   3.642  0.4583 -0.2374  0.3240
  240THF     C4 3599   2.321   0.070   3.511  0.0171 -0.2221  0.2866
  240THF     H1 3600   2.225   0.225   3.375  0.3696 -0.0381 -0.1296
  240THF     H2 3601   2.399   0.249   3.419 -0.0429  1.2941  2.9599
  240THF     H3 3602   2.134   0.265   3.575  0.0362 -0.5822 -1.0354
  240THF     H4 3603   2.269   0.387   3.575 -1.2414  0.8481 -3.0277
  240THF     H5 3604   2.384   0.273   3.744  1.4323  0.6744 -2.3647
  240THF     H6 3605   2.231   0.171   3.765 -1.7774 -1.1463 -2.3694
  240THF     H7 3606   2.390   0.011   3.449  0.1629 -1.9764  2.0646
  240THF     H8 3607   2.224   0.018   3.515  1.1801 -2.5366 -0.3378
  241THF     C1 3608   0.116   3.151   0.169  0.1000  0.1792 -0.1303
  241THF     C2 3609  -0.021   3.116   0.232  0.5680  0.4615  0.5902
  241THF     C3 3610  -0.105   3.125   0.107 -0.5180 -0.0043  0.6805
  241THF     O1 3611  -0.027   3.063   0.006 -0.4862  0.3650 -0.3953
  241THF     C4 3612   0.110   3.074   0.040 -0.2918  0.2569  0.5914
  241THF     H1 3613   0.124   3.260   0.154  3.1988 -0.4651 -3.9128
  241THF     H2 3614   0.199   3.125   0.235 -1.5235  0.3228  2.0235
  241THF     H3 3615  -0.041   3.172   0.324  2.1527  3.6236 -0.9108
  241THF     H4 3616  -0.013   3.010   0.258 -1.0394  0.6159  1.7955
  241THF     H5 3617  -0.201   3.072   0.113  0.7232 -2.4784 -0.8627
  241THF     H6 3618  -0.122   3.232   0.088  0.0050 -0.0047  0.2139
  241THF     H7 3619   0.150   2.974   0.062 -1.2814 -0.2052  0.3212
  241THF     H8 3620   0.174   3.116  -0.038  2.2055  0.1461  2.4990
  242THF     C1 3621   2.852   3.240   2.355  1.3907 -0.5798 -0.3896
  242THF     C2 3622   2.823   3.181   2.215  0.3403  0.2529  0.0565
  242THF     C3 3623   2.820   3.033   2.239  0.5297 -0.0116 -0.5076
  242THF     O1 3624   2.834   3.021   2.385 -0.1119 -0.4578 -0.1146
  242THF     C4 3625   2.785   3.142   2.447 -0.7586 -0.0658 -0.1947
  242THF     H1 3626   2.959   3.247   2.373  1.5419 -0.2218 -1.3758
  242THF     H2 3627   2.808   3.340   2.368  1.1673 -0.3758 -2.5425
  242THF     H3 3628   2.904   3.211   2.147 -0.1380 -1.9420 -1.5307
  242THF     H4 3629   2.728   3.218   2.174  0.8593  0.4688 -0.9808
  242THF     H5 3630   2.719   3.004   2.205 -0.0246  1.0013  0.2250
  242THF     H6 3631   2.903   2.981   2.191 -0.9588 -1.9212 -1.0931
  242THF     H7 3632   2.676   3.155   2.440 -0.7516 -0.9380 -2.3874
  242THF     H8 3633   2.827   3.147   2.548 -0.2888  1.8095 -0.4734
  243THF     C1 3634   3.152   2.330   2.713  0.3976  0.2900 -0.4605
  243THF     C2 3635   3.274   2.429   2.717  0.0106 -0.0528 -0.0459
  243THF     C3 3636   3.391   2.334   2.668  0.4822  0.1149  0.6898
  243THF     O1 3637   3.329   2.214   2.625  0.4139  0.3815  0.1169
  243THF     C4 3638   3.189   2.240   2.596 -0.0275 -0.2684 -0.5476
  243THF     H1 3639   3.132   2.269   2.802 -0.9370  0.1736 -0.8382
  243THF     H2 3640   3.064   2.392   2.693 -0.5346 -0.0588  2.2688
  243THF     H3 3641   3.286   2.465   2.819 -2.8794 -0.3262  0.4353
  243THF     H4 3642   3.258   2.510   2.645 -0.0706 -1.2506 -1.3929
  243THF     H5 3643   3.448   2.383   2.588 -1.5381  0.2602 -0.7052
  243THF     H6 3644   3.461   2.312   2.750  0.2775 -1.0605  0.5612
  243THF     H7 3645   3.176   2.293   2.501  0.5761 -1.0968 -1.0917
  243THF     H8 3646   3.139   2.143   2.608 -0.6477  0.1245  0.1593
  244THF     C1 3647   3.338   3.232   2.844 -0.8420  0.2685  0.5615
  244THF     C2 3648   3.322   3.232   2.684 -0.1412  0.3027 -0.2110
  244THF     C3 3649   3.413   3.115   2.637  0.0062 -0.0250  0.4192
  244THF     O1 3650   3.504   3.088   2.741  0.0668 -0.0850  0.1908
  244THF     C4 3651   3.432   3.108   2.864  0.1374 -0.8236  0.0960
  244THF     H1 3652   3.389   3.324   2.875 -0.7707  0.5343 -0.3342
  244THF     H2 3653   3.241   3.223   2.894 -1.0323  2.6099  0.6385
  244THF     H3 3654   3.355   3.326   2.637 -1.5215  0.8249 -0.1669
  244THF     H4 3655   3.219   3.218   2.651  0.2397  1.3683 -1.9294
  244THF     H5 3656   3.362   3.022   2.607  0.5611  0.0237 -0.7010
  244THF     H6 3657   3.473   3.151   2.553 -1.6595  1.0274 -0.3535
  244THF     H7 3658   3.373   3.017   2.881 -0.8182 -0.2358 -0.0228
  244THF     H8 3659   3.506   3.125   2.943  0.4896  1.7856 -0.7494
  245THF     C1 3660   1.408   1.258   3.072  0.7365  0.2503 -0.2286
  245THF     C2 3661   1.361   1.109   3.109 -0.8055 -0.3791  0.4316
  245THF     C3 3662   1.402   1.099   3.256  0.2839  0.2538  0.3725
  245THF     O1 3663   1.519   1.178   3.273 -0.8093  0.1673  0.1880
  245THF     C4 3664   1.542   1.253   3.153  0.3546  0.0963 -0.3081
  245THF     H1 3665   1.419   1.280   2.966 -1.4056  1.3530 -0.2368
  245THF     H2 3666   1.345   1.338   3.112 -2.2519 -2.5895  0.9571
  245THF     H3 3667   1.416   1.034   3.051  1.4902  2.4990 -1.3158
  245THF     H4 3668   1.253   1.092   3.111 -0.8646 -0.1039 -0.2578
  245THF     H5 3669   1.325   1.127   3.330 -0.0886 -0.0279  0.0898
  245THF     H6 3670   1.425   0.993   3.272  0.8352  0.3859  0.4534
  245THF     H7 3671   1.578   1.351   3.188 -1.0478 -0.3201  2.4073
  245THF     H8 3672   1.620   1.205   3.092 -0.1502  0.7954 -1.5247
  246THF     C1 3673   2.860   1.055   2.812  0.0722 -0.3130  0.5887
  246THF     C2 3674   2.940   1.187   2.842  0.1414  0.3332 -0.3303
  246THF     C3 3675   2.976   1.151   2.991 -0.4086 -0.2203  1.0931
  246THF     O1 3676   2.857   1.110   3.046 -0.2564 -0.2878  0.3920
  246THF     C4 3677   2.791   1.029   2.945  0.1951 -0.5371 -0.2566
  246THF     H1 3678   2.794   1.062   2.725  1.1221  2.7274  0.0104
  246THF     H2 3679   2.936   0.978   2.793 -0.1067 -0.3815  0.1276
  246THF     H3 3680   2.874   1.275   2.838 -1.3275 -0.5796  2.3199
  246THF     H4 3681   3.023   1.192   2.770  0.2267 -1.4179 -0.3579
  246THF     H5 3682   3.059   1.080   2.999 -0.7159 -0.8786 -1.1545
  246THF     H6 3683   3.010   1.240   3.045 -1.9599  0.8452  0.3615
  246THF     H7 3684   2.773   0.924   2.970  1.1153 -0.6860 -0.1810
  246THF     H8 3685   2.690   1.070   2.953  0.6914  0.7438 -0.3915
  247THF     C1 3686   0.874   2.981   0.700  0.3735 -0.6196  0.1023
  247THF     C2 3687   0.794   3.113   0.689  0.1955 -0.2096  0.7065
  247THF     C3 3688   0.901   3.213   0.646  0.2286  0.3442 -0.0793
  247THF     O1 3689   0.967   3.134   0.550  0.2870  0.3598  0.0701
  247THF     C4 3690   0.999   3.010   0.617 -0.0705  0.3555 -0.2142
  247THF     H1 3691   0.912   2.972   0.803 -0.0317 -0.4609  0.2677
  247THF     H2 3692   0.813   2.896   0.666  1.3936  0.0078 -3.4164
  247THF     H3 3693   0.740   3.145   0.779  0.2986  0.1869  0.6300
  247THF     H4 3694   0.727   3.104   0.603  0.2685 -0.9899  0.7284
  247THF     H5 3695   0.872   3.309   0.603 -0.3974  0.8511  1.4250
  247THF     H6 3696   0.972   3.231   0.728  2.6428 -1.2018 -1.7537
  247THF     H7 3697   1.027   2.931   0.547  1.0556 -0.4154  1.0885
  247THF     H8 3698   1.078   3.028   0.691 -0.2364 -0.4483  0.1534
  248THF     C1 3699   2.169   0.604   3.249 -0.3390 -0.3382  0.5561
  248THF     C2 3700   2.075   0.666   3.362 -0.8065  0.3966 -0.0759
  248THF     C3 3701   1.951   0.575   3.354  0.6366  0.0138  0.3879
  248THF     O1 3702   1.957   0.496   3.235 -0.2397 -0.0273  0.2511
  248THF     C4 3703   2.071   0.538   3.149  0.0339 -0.2450 -0.1740
  248THF     H1 3704   2.234   0.677   3.199  1.6133 -2.6385 -0.3842
  248THF     H2 3705   2.245   0.533   3.284  0.1006  0.7829  1.9399
  248THF     H3 3706   2.063   0.770   3.330 -1.3313  0.1205 -0.7666
  248THF     H4 3707   2.118   0.677   3.463 -0.8191  1.6692 -0.2021
  248THF     H5 3708   1.963   0.498   3.431 -1.9791 -1.5289 -0.6798
  248THF     H6 3709   1.860   0.636   3.361  0.5368  0.3584 -3.0668
  248THF     H7 3710   2.106   0.449   3.096  1.8322 -0.9943  2.1865
  248THF     H8 3711   2.040   0.617   3.080 -0.1162 -0.1733 -0.0276
  249THF     C1 3712   0.177   2.844   3.342 -0.3036  0.5038  0.5038
  249THF     C2 3713   0.161   2.936   3.218  0.0413 -0.5558 -0.0553
  249THF     C3 3714   0.196   3.076   3.287 -0.3249  0.2924  0.0299
  249THF     O1 3715   0.153   3.064   3.425  0.3247  0.0946 -0.0277
  249THF     C4 3716   0.100   2.934   3.446 -0.8604  0.5211  0.4085
  249THF     H1 3717   0.123   2.753   3.316 -0.5531  1.9051 -4.4442
  249THF     H2 3718   0.278   2.820   3.376 -0.3160  0.5392  0.5653
  249THF     H3 3719   0.058   2.938   3.180 -0.6521 -0.2998  1.7990
  249THF     H4 3720   0.226   2.907   3.135 -2.0821  1.1594 -2.4276
  249THF     H5 3721   0.304   3.090   3.287 -0.1172 -1.1855  1.1543
  249THF     H6 3722   0.141   3.163   3.247 -0.7063  0.0406 -0.0010
  249THF     H7 3723   0.104   2.908   3.552 -1.1061  2.9861  1.0465
  249THF     H8 3724  -0.006   2.930   3.417 -0.1938 -1.9981 -1.9029
  250THF     C1 3725   1.805   0.191   3.150  0.1464  0.0794 -0.7289
  250THF     C2 3726   1.924   0.107   3.098  0.1570  0.8597  0.1381
  250THF     C3 3727   2.031   0.149   3.204  0.1052 -0.1501 -0.5263
  250THF     O1 3728   1.960   0.131   3.326  0.3274  0.1992 -0.3981
  250THF     C4 3729   1.828   0.187   3.304  0.6559  0.0087  0.6643
  250THF     H1 3730   1.807   0.297   3.122 -1.5561 -0.4760 -3.0454
  250THF     H2 3731   1.707   0.159   3.113 -1.1059  3.5087 -0.5156
  250THF     H3 3732   1.954   0.135   2.996  2.8218  0.5397  0.7965
  250THF     H4 3733   1.915  -0.002   3.107  0.2000  0.8652  0.2491
  250THF     H5 3734   2.114   0.077   3.207 -0.8158 -1.2662 -1.2852
  250THF     H6 3735   2.068   0.251   3.191 -1.3794  0.5485  0.5525
  250THF     H7 3736   1.760   0.122   3.360  0.3152  0.3432  0.6436
  250THF     H8 3737   1.813   0.286   3.349  2.8170  0.0340  1.3663
  251THF     C1 3738   1.839   2.273   3.190 -0.4041 -0.3531 -0.4345
  251THF     C2 3739   1.766   2.415   3.204  0.0496  0.0818  0.7486
  251THF     C3 3740   1.722   2.403   3.353  0.6912 -0.0511 -0.0107
  251THF     O1 3741   1.673   2.276   3.358 -0.3727 -0.0231  0.1626
  251THF     C4 3742   1.767   2.186   3.296 -0.3988 -0.0388 -0.2253
  251THF     H1 3743   1.842   2.234   3.087 -1.5472  0.1361 -0.6594
  251THF     H2 3744   1.947   2.280   3.206 -0.5290 -1.5271  1.0528
  251THF     H3 3745   1.692   2.419   3.124 -1.1823  2.6580  1.9592
  251THF     H4 3746   1.843   2.492   3.188 -0.2024  0.2609  0.4072
  251THF     H5 3747   1.811   2.419   3.413 -1.4209  1.5534  2.8180
  251THF     H6 3748   1.641   2.472   3.382  0.1538 -0.1368 -1.2713
  251THF     H7 3749   1.837   2.160   3.377 -0.2280 -0.5782 -0.5441
  251THF     H8 3750   1.715   2.095   3.264 -0.0827  0.0353 -0.9503
  252THF     C1 3751   2.312   2.078   2.328 -0.8108 -0.5065 -0.1956
  252THF     C2 3752   2.241   2.093   2.465  0.0102 -0.0778  0.2781
  252THF     C3 3753   2.189   1.950   2.490 -0.4770  0.6126  0.2826
  252THF     O1 3754   2.267   1.868   2.409 -0.5353 -0.1261 -0.1439
  252THF     C4 3755   2.287   1.937   2.283  0.6259  0.1364 -0.2296
  252THF     H1 3756   2.268   2.139   2.248 -1.3141 -1.4406 -0.6358
  252THF     H2 3757   2.417   2.108   2.326 -0.9774  0.5534  3.1969
  252THF     H3 3758   2.156   2.162   2.460  1.4974  1.6709 -1.5664
  252THF     H4 3759   2.315   2.111   2.543 -2.8074 -0.1865  3.0600
  252THF     H5 3760   2.199   1.912   2.592 -0.8456 -0.3782 -0.0492
  252THF     H6 3761   2.084   1.936   2.462 -0.1359 -2.8781  0.5328
  252THF     H7 3762   2.362   1.883   2.224  1.5248 -0.0113  1.0436
  252THF     H8 3763   2.188   1.942   2.235 -0.2873  0.4674  1.6436
  253THF     C1 3764   2.961   1.592   2.905  0.1754 -0.1773 -0.0894
  253THF     C2 3765   2.845   1.581   2.807  0.2441 -0.3973 -0.5524
  253THF     C3 3766   2.880   1.704   2.714  0.4023 -0.2528 -0.6630
  253THF     O1 3767   2.940   1.795   2.804  0.3015  0.5154  0.6015
  253THF     C4 3768   3.039   1.722   2.867 -0.3005 -0.3077 -0.4479
  253THF     H1 3769   2.923   1.592   3.008 -0.9570 -0.1283 -0.5004
  253THF     H2 3770   3.030   1.506   2.903 -0.8607 -0.9890 -1.1987
  253THF     H3 3771   2.749   1.589   2.860  0.8358  1.1850  0.3006
  253THF     H4 3772   2.853   1.488   2.750 -0.3452 -1.7381  1.4759
  253THF     H5 3773   2.953   1.689   2.633 -0.0221 -3.2874 -0.5490
  253THF     H6 3774   2.788   1.733   2.662 -1.5562 -1.9582  1.7260
  253THF     H7 3775   3.135   1.710   2.815 -0.3925 -0.8690 -0.4923
  253THF     H8 3776   3.071   1.791   2.947  0.4861 -0.3634 -0.7129
  254THF     C1 3777   1.311   2.379   2.241 -0.3571  0.1301  0.1101
  254THF     C2 3778   1.404   2.506   2.238 -0.2566 -0.4754  0.2102
  254THF     C3 3779   1.459   2.517   2.377  0.7444 -0.9630 -0.3207
  254THF     O1 3780   1.417   2.405   2.445  0.3766 -0.3696 -0.2668
  254THF     C4 3781   1.290   2.371   2.392  0.3106 -0.5838 -0.3683
  254THF     H1 3782   1.218   2.397   2.185  0.1695  1.7619 -0.2852
  254THF     H2 3783   1.363   2.294   2.197  0.4378 -0.4279  2.1045
  254THF     H3 3784   1.339   2.590   2.213  1.0917  0.2290 -1.0178
  254THF     H4 3785   1.492   2.500   2.173  0.0183  0.6039  0.4845
  254THF     H5 3786   1.568   2.524   2.385  0.5798  0.1219  1.2653
  254THF     H6 3787   1.422   2.609   2.424 -2.7934 -1.6915 -1.5616
  254THF     H7 3788   1.262   2.275   2.436 -0.3646 -0.5603 -0.7494
  254THF     H8 3789   1.223   2.449   2.431  1.5847 -0.0142  0.7298
  255THF     C1 3790   2.274   2.683   3.362  0.4114 -0.2380 -0.1823
  255THF     C2 3791   2.262   2.532   3.390  0.2691 -0.7057  0.2242
  255THF     C3 3792   2.268   2.472   3.247 -0.6137 -0.6230  0.0149
  255THF     O1 3793   2.269   2.589   3.163  0.1701  0.1962  0.0428
  255THF     C4 3794   2.342   2.682   3.228 -0.1997 -0.3487 -1.2399
  255THF     H1 3795   2.175   2.731   3.358  0.0578 -1.0880 -2.4678
  255THF     H2 3796   2.327   2.732   3.444  0.7387  0.1035 -0.5973
  255THF     H3 3797   2.170   2.502   3.442 -1.9522  0.7970 -2.6828
  255THF     H4 3798   2.352   2.513   3.450  0.8651 -1.3061 -0.8482
  255THF     H5 3799   2.357   2.409   3.240  1.7779  2.5193  0.8560
  255THF     H6 3800   2.182   2.408   3.224 -0.1919 -1.0154 -0.4714
  255THF     H7 3801   2.448   2.659   3.241 -0.0695  1.4150  1.2550
  255THF     H8 3802   2.333   2.783   3.187  0.3883  1.8396  3.5862
  256THF     C1 3803   1.331   2.137   3.299 -0.5400  0.5073  0.4518
  256THF     C2 3804   1.311   2.270   3.386 -0.7497  0.4871 -1.0401
  256THF     C3 3805   1.266   2.372   3.284 -0.0441 -0.4146 -0.4403
  256THF     O1 3806   1.281   2.316   3.155 -0.4441 -0.3042  0.5262
  256THF     C4 3807   1.374   2.206   3.161  0.5205  0.1259 -0.1135
  256THF     H1 3808   1.412   2.069   3.326 -0.8675 -0.0920 -0.0594
  256THF     H2 3809   1.234   2.086   3.289 -1.5487  2.1388  1.6174
  256THF     H3 3810   1.404   2.300   3.435 -1.3658 -0.5069  0.8032
  256THF     H4 3811   1.232   2.248   3.458  0.3637 -0.1758 -0.0020
  256THF     H5 3812   1.164   2.413   3.293 -0.1000 -1.1426  2.7489
  256THF     H6 3813   1.337   2.455   3.287  1.0647 -1.3803  0.8325
  256THF     H7 3814   1.363   2.149   3.068  2.0632  0.3716 -0.4650
  256THF     H8 3815   1.477   2.244   3.158  0.9712 -1.0811 -0.0239
  257THF     C1 3816   1.996   2.634   2.414  0.0294 -0.6253  0.2053
  257THF     C2 3817   1.958   2.623   2.261 -0.2514  0.0205 -0.3159
  257THF     C3 3818   1.812   2.669   2.260 -0.5291 -0.6395 -0.0041
  257THF     O1 3819   1.761   2.665   2.389  0.1235 -0.4228 -0.2255
  257THF     C4 3820   1.864   2.694   2.477 -0.5864  0.1721 -0.4517
  257THF     H1 3821   2.007   2.537   2.463 -1.6316 -0.8241  0.2002
  257THF     H2 3822   2.082   2.698   2.439  0.2413 -1.0657  0.6086
  257THF     H3 3823   1.967   2.517   2.235  2.0935  0.6243 -2.1960
  257THF     H4 3824   2.019   2.686   2.195  0.0363 -1.5880 -1.6212
  257THF     H5 3825   1.804   2.769   2.215 -1.9837 -1.0049 -0.5679
  257THF     H6 3826   1.756   2.608   2.188 -0.1366 -0.6911 -0.2717
  257THF     H7 3827   1.882   2.802   2.485 -0.9924  0.3321 -1.5251
  257THF     H8 3828   1.849   2.657   2.579 -1.2000  0.0883 -0.5721
  258THF     C1 3829   2.691   0.336   0.253  0.0612 -0.4207  0.2232
  258THF     C2 3830   2.614   0.283   0.129 -0.2939 -0.3030  0.3742
  258THF     C3 3831   2.716   0.184   0.064  0.1319 -0.3264 -0.4600
  258THF     O1 3832   2.829   0.178   0.156 -0.2379  0.8694  0.1737
  258THF     C4 3833   2.778   0.213   0.285  0.7060 -0.5321  0.8155
  258THF     H1 3834   2.753   0.423   0.231 -1.5128  1.0639  1.5596
  258THF     H2 3835   2.628   0.373   0.334  1.1523  2.1716 -0.0734
  258THF     H3 3836   2.610   0.374   0.068 -2.7492  0.2750  1.3246
  258THF     H4 3837   2.514   0.246   0.154 -1.0862  1.7785  0.4061
  258THF     H5 3838   2.670   0.085   0.059 -1.2325  0.0885  2.5645
  258THF     H6 3839   2.740   0.200  -0.042  2.3838 -1.1233 -0.1087
  258THF     H7 3840   2.721   0.133   0.333 -0.2428  0.3932  1.2404
  258THF     H8 3841   2.855   0.241   0.357  1.3179  2.1581 -0.8235
  259THF     C1 3842   2.441   1.045   2.471 -0.0666  0.2981 -0.1109
  259THF     C2 3843   2.388   1.087   2.330 -0.2575 -0.3523 -0.4200
  259THF     C3 3844   2.269   0.986   2.314  0.1874  0.0735  1.0529
  259THF     O1 3845   2.287   0.887   2.418  0.2158  0.4765  0.5876
  259THF     C4 3846   2.340   0.950   2.534 -0.5500 -0.5520 -0.0581
  259THF     H1 3847   2.528   0.982   2.453 -1.0315 -0.6076 -1.6613
  259THF     H2 3848   2.474   1.125   2.538 -0.7075  0.9357 -0.5421
  259THF     H3 3849   2.452   1.083   2.242  0.9069  2.7092  0.2409
  259THF     H4 3850   2.354   1.191   2.333  0.2559 -0.1795 -0.7100
  259THF     H5 3851   2.172   1.037   2.319  1.3143  2.8100 -2.6941
  259THF     H6 3852   2.279   0.936   2.216 -3.9079 -1.7049  1.4199
  259THF     H7 3853   2.266   1.001   2.597  0.2766 -0.0570  0.5198
  259THF     H8 3854   2.386   0.877   2.602  2.1554  0.0996 -1.1181
  260THF     C1 3855   2.878   0.864   2.230  0.1007 -0.0269 -0.6596
  260THF     C2 3856   2.813   0.922   2.357 -0.3223  0.0245 -0.4142
  260THF     C3 3857   2.909   0.881   2.474 -0.2858 -0.3608  0.1047
  260THF     O1 3858   3.027   0.856   2.401  0.6273  0.6393  0.3963
  260THF     C4 3859   2.989   0.775   2.294 -0.4735 -0.4555  0.0189
  260THF     H1 3860   2.815   0.809   2.160  0.6643 -0.3058 -0.9522
  260THF     H2 3861   2.929   0.934   2.164  0.3165  1.1836  0.7671
  260THF     H3 3862   2.712   0.882   2.373  0.6734 -1.8406  1.3798
  260THF     H4 3863   2.802   1.030   2.346 -0.9065 -0.1702 -1.8973
  260THF     H5 3864   2.921   0.962   2.548  2.5499 -0.9446  0.3464
  260THF     H6 3865   2.882   0.783   2.514 -2.4208  0.4602  0.7373
  260THF     H7 3866   3.069   0.758   2.221  0.3192  2.0447  0.2672
  260THF     H8 3867   2.947   0.683   2.338  0.0452 -0.0549  1.3845
  261THF     C1 3868   0.559   3.036   2.879 -0.2020  0.5259 -0.1323
  261THF     C2 3869   0.528   2.977   3.021 -0.5711  0.0915  0.3250
  261THF     C3 3870   0.637   3.052   3.106  0.3330 -0.2402  0.0019
  261THF     O1 3871   0.667   3.169   3.040 -0.0563  0.4753 -0.3926
  261THF     C4 3872   0.595   3.186   2.917  0.3903 -0.5239 -0.7890
  261THF     H1 3873   0.636   2.990   2.816  0.0326  2.0711 -0.9920
  261THF     H2 3874   0.472   3.031   2.813  0.5618  1.2750 -1.2040
  261THF     H3 3875   0.532   2.868   3.027 -0.9131  0.1102  0.9118
  261THF     H4 3876   0.427   3.009   3.048 -0.9947 -0.0785 -0.9879
  261THF     H5 3877   0.599   3.061   3.208  1.1620  0.1508  0.2780
  261THF     H6 3878   0.723   2.984   3.101  0.0847 -0.6517  1.2322
  261THF     H7 3879   0.504   3.243   2.941  1.0447 -0.4935  1.7498
  261THF     H8 3880   0.668   3.232   2.849 -0.6366 -0.8127 -2.1092
  262THF     C1 3881   2.555   0.609   2.260  0.4062 -0.1471  0.0090
  262THF     C2 3882   2.671   0.504   2.256 -0.4075  1.1138  0.3903
  262THF     C3 3883   2.721   0.506   2.400 -0.1356 -0.0217 -0.7049
  262THF     O1 3884   2.629   0.594   2.473 -0.4330 -0.3938 -0.4571
  262THF     C4 3885   2.504   0.593   2.405 -0.6413 -0.3505 -0.3735
  262THF     H1 3886   2.591   0.712   2.244 -1.3586  0.6288  0.9563
  262THF     H2 3887   2.478   0.586   2.186  0.5975  0.8139 -0.5093
  262THF     H3 3888   2.743   0.538   2.181  1.2920  1.4464  2.1460
  262THF     H4 3889   2.624   0.410   2.223 -0.7374  1.9186 -1.5337
  262THF     H5 3890   2.715   0.406   2.446  0.3175  0.3080  0.0908
  262THF     H6 3891   2.823   0.547   2.409 -0.3525  0.1515  1.2490
  262THF     H7 3892   2.444   0.501   2.411  1.4292 -1.6733  0.7447
  262THF     H8 3893   2.446   0.681   2.435 -0.2933  0.0404 -0.8465
  263THF     C1 3894   1.276   1.557   2.671 -0.0410 -0.2557  0.1615
  263THF     C2 3895   1.337   1.428   2.727  0.3444 -0.1158 -0.0750
  263THF     C3 3896   1.229   1.326   2.708  0.0416  0.4604 -0.2962
  263THF     O1 3897   1.108   1.401   2.720 -0.1801 -0.8207 -0.4355
  263THF     C4 3898   1.128   1.538   2.690  0.2072 -0.6180  0.7680
  263THF     H1 3899   1.314   1.652   2.709 -1.0845 -0.2619  1.2475
  263THF     H2 3900   1.286   1.551   2.562  0.1451  0.5443  0.1347
  263THF     H3 3901   1.360   1.437   2.834 -0.5537  0.6370  0.0563
  263THF     H4 3902   1.425   1.395   2.670 -1.2573 -0.3627 -2.4600
  263THF     H5 3903   1.238   1.272   2.613 -1.2893 -1.0336  0.3841
  263THF     H6 3904   1.236   1.253   2.790 -0.1155 -1.2010 -1.7356
  263THF     H7 3905   1.077   1.564   2.596  1.4474  0.2025  0.3029
  263THF     H8 3906   1.083   1.609   2.760  0.3677  1.1370 -0.8604
  264THF     C1 3907   1.106   1.974   2.900  0.7147  0.5060 -1.0806
  264THF     C2 3908   1.022   1.885   2.802 -0.3554 -0.2165 -0.2622
  264THF     C3 3909   1.005   1.995   2.698  0.4553  0.3114  0.3159
  264THF     O1 3910   0.953   2.101   2.774  0.2083  0.2369 -0.1154
  264THF     C4 3911   1.047   2.123   2.881  0.2204 -0.3113  0.4660
  264THF     H1 3912   1.087   1.934   3.001  1.2004 -0.4304 -1.3538
  264THF     H2 3913   1.213   1.968   2.881  0.4734  0.4434 -2.4368
  264THF     H3 3914   0.923   1.846   2.829 -0.1251  0.3582  1.5094
  264THF     H4 3915   1.090   1.810   2.761 -0.9903 -1.2375  0.5422
  264THF     H5 3916   1.095   2.025   2.641  0.5427 -0.7005 -0.0833
  264THF     H6 3917   0.934   1.966   2.620  0.6942 -0.2301  0.2953
  264THF     H7 3918   1.124   2.187   2.836 -0.3558 -1.6285 -2.5236
  264THF     H8 3919   0.998   2.180   2.961  3.5106  2.6749  0.4566
  265THF     C1 3920   0.730   1.641   2.750 -0.2067 -0.2492  0.6577
  265THF     C2 3921   0.653   1.642   2.884  0.3574  0.6742  0.2876
  265THF     C3 3922   0.606   1.495   2.874 -0.3386  0.3660  0.2296
  265THF     O1 3923   0.555   1.488   2.738  0.2502  0.5247  1.1610
  265THF     C4 3924   0.621   1.580   2.657  0.8720  0.3752 -0.1070
  265THF     H1 3925   0.740   1.746   2.720 -2.3674 -0.0390  0.6045
  265THF     H2 3926   0.821   1.581   2.737 -0.0288  0.0337  0.5906
  265THF     H3 3927   0.560   1.698   2.872 -0.4053 -0.5403  0.3413
  265THF     H4 3928   0.709   1.672   2.973 -1.5522 -1.4574  2.2749
  265THF     H5 3929   0.695   1.432   2.890 -0.5164 -0.2074 -1.0147
  265THF     H6 3930   0.527   1.470   2.945 -0.7551 -1.5370 -0.8869
  265THF     H7 3931   0.668   1.528   2.572 -1.1712 -2.1021  0.2024
  265THF     H8 3932   0.543   1.650   2.626  0.3752 -0.4391 -0.7016
  266THF     C1 3933   1.230   0.225   3.230 -0.2472 -1.0295 -0.4650
  266THF     C2 3934   1.172   0.120   3.131  0.0232 -0.2160  1.1516
  266THF     C3 3935   1.292   0.049   3.069 -0.2737 -0.0997  0.3048
  266THF     O1 3936   1.411   0.104   3.124  0.1681 -0.6119 -0.4921
  266THF     C4 3937   1.371   0.236   3.168  0.7178  0.2367 -0.0961
  266THF     H1 3938   1.169   0.314   3.220  0.5580 -0.2629  1.3193
  266THF     H2 3939   1.222   0.194   3.334  2.5710 -1.6858 -0.3946
  266THF     H3 3940   1.118   0.162   3.046  0.0180 -1.7244  0.3989
  266THF     H4 3941   1.104   0.047   3.177 -2.5228  0.5194 -1.3107
  266THF     H5 3942   1.288  -0.060   3.081 -0.6937 -0.1957 -0.5825
  266THF     H6 3943   1.296   0.066   2.960 -2.5503 -0.3702  0.1433
  266THF     H7 3944   1.443   0.273   3.242 -1.4873  1.5007  1.4951
  266THF     H8 3945   1.365   0.302   3.081 -1.1408 -0.2255 -0.3326
  267THF     C1 3946   3.104   2.549   3.298 -0.0792 -0.5106 -0.3769
  267THF     C2 3947   3.250   2.576   3.253  0.8109 -0.2930  0.0809
  267THF     C3 3948   3.240   2.554   3.099  0.7865 -0.8533 -0.1322
  267THF     O1 3949   3.116   2.631   3.072 -0.3747  0.0865 -0.0296
  267THF     C4 3950   3.022   2.609   3.182 -0.3620 -0.0921  0.5053
  267THF     H1 3951   3.091   2.441   3.306 -0.6276 -0.4528 -0.4540
  267THF     H2 3952   3.071   2.605   3.386 -1.6469 -2.1393  0.1161
  267THF     H3 3953   3.324   2.501   3.286  0.2904 -0.0787  1.7338
  267THF     H4 3954   3.295   2.671   3.282 -0.0376  0.3066 -0.5617
  267THF     H5 3955   3.322   2.609   3.051  0.4065  1.6256  1.9264
  267THF     H6 3956   3.241   2.448   3.071  2.9420 -0.8933  0.0576
  267THF     H7 3957   2.987   2.708   3.214 -1.0816  0.2818 -1.3677
  267THF     H8 3958   2.934   2.548   3.160 -0.3465 -0.0705  0.3827
  268THF     C1 3959   2.697   2.972   3.367 -1.2135  0.1349 -0.1291
  268THF     C2 3960   2.683   3.060   3.495 -0.4935 -0.1181 -0.3608
  268THF     C3 3961   2.594   2.971   3.592 -0.4200  0.4223  0.6601
  268THF     O1 3962   2.541   2.865   3.517  0.0148  0.5322  0.6180
  268THF     C4 3963   2.572   2.892   3.372  0.5623  0.5041  0.2597
  268THF     H1 3964   2.706   3.035   3.277  0.0417 -0.9260 -0.7591
  268THF     H2 3965   2.789   2.913   3.367 -1.5924 -0.5052 -1.8125
  268THF     H3 3966   2.629   3.148   3.457  1.0030  0.6100 -0.8492
  268THF     H4 3967   2.781   3.085   3.537 -0.7190  1.2227 -0.6007
  268THF     H5 3968   2.640   2.932   3.684 -1.3001 -0.3812  0.7732
  268THF     H6 3969   2.517   3.030   3.642 -0.1078  2.0613 -0.7669
  268THF     H7 3970   2.590   2.795   3.324  0.3994  1.3193 -1.4921
  268THF     H8 3971   2.480   2.940   3.339 -1.7666 -2.7478  1.7836
  269THF     C1 3972   2.696   2.632   3.733  0.6591 -0.5512  0.1019
  269THF     C2 3973   2.657   2.539   3.619  0.3426 -0.1235  0.0423
  269THF     C3 3974   2.793   2.507   3.548 -0.4186 -0.2778 -0.2347
  269THF     O1 3975   2.889   2.514   3.665  0.2998  0.8231 -0.4150
  269THF     C4 3976   2.819   2.551   3.788 -0.3535  0.7073 -0.2018
  269THF     H1 3977   2.724   2.737   3.718 -0.1985 -0.3272  0.0134
  269THF     H2 3978   2.619   2.641   3.811 -0.7490 -1.7743 -1.1106
  269THF     H3 3979   2.587   2.583   3.547 -0.9508 -1.0688  0.6996
  269THF     H4 3980   2.609   2.447   3.657  1.6560 -1.2698 -1.0103
  269THF     H5 3981   2.802   2.408   3.502  1.3775  0.1784 -0.9291
  269THF     H6 3982   2.809   2.591   3.479 -2.8082  1.7111  1.4973
  269THF     H7 3983   2.775   2.462   3.836 -2.6118  1.9095  0.0125
  269THF     H8 3984   2.885   2.601   3.860  1.5191 -0.5187 -1.0184
  270THF     C1 3985   3.149   0.465   3.606 -0.8728  1.1164 -0.1899
  270THF     C2 3986   3.088   0.465   3.747 -0.0401  0.5930 -0.4140
  270THF     C3 3987   3.227   0.466   3.828  0.2545  0.4671  0.1310
  270THF     O1 3988   3.296   0.575   3.766 -0.7646 -0.3619 -0.0046
  270THF     C4 3989   3.268   0.567   3.625  0.5264 -0.1210 -0.0016
  270THF     H1 3990   3.183   0.366   3.574  2.3031  2.5403 -1.4231
  270THF     H2 3991   3.079   0.502   3.529  1.0951  1.5709 -1.8059
  270THF     H3 3992   3.030   0.375   3.768  0.8522  0.1651  0.2388
  270THF     H4 3993   3.030   0.554   3.774  0.5173  0.9571 -0.4037
  270THF     H5 3994   3.226   0.499   3.933  1.7845  0.5672  0.1342
  270THF     H6 3995   3.279   0.370   3.818 -1.3537 -0.2194 -1.9116
  270THF     H7 3996   3.230   0.665   3.594 -0.5374 -0.9506 -1.4227
  270THF     H8 3997   3.358   0.538   3.570  0.0419 -0.0037 -0.8726
  271THF     C1 3998   1.000   0.953   3.542  0.0664 -0.1909  0.8370
  271THF     C2 3999   1.031   0.870   3.411  0.2006  0.2229  0.4564
  271THF     C3 4000   1.185   0.851   3.421 -0.2047 -0.0139  0.6794
  271THF     O1 4001   1.233   0.910   3.540 -0.0102 -0.0239  0.3466
  271THF     C4 4002   1.124   0.910   3.629  0.0580  0.0379  0.4244
  271THF     H1 4003   1.007   1.054   3.501 -2.3558  0.6427  2.3414
  271THF     H2 4004   0.904   0.938   3.594  0.1966 -0.4090  1.0158
  271THF     H3 4005   1.001   0.924   3.321 -0.0960  0.2973  0.5978
  271THF     H4 4006   0.967   0.782   3.399  0.6858 -0.2050  0.9478
  271THF     H5 4007   1.218   0.747   3.427 -3.0145 -0.9663  0.5628
  271THF     H6 4008   1.229   0.904   3.336 -1.6204  0.2979  0.1275
  271THF     H7 4009   1.128   0.806   3.665  1.5451 -0.5293 -1.3333
  271THF     H8 4010   1.153   0.967   3.719  1.0826  1.2993 -0.6742
  272THF     C1 4011   0.861   1.135   2.794 -0.0175  0.0157 -0.1919
  272THF     C2 4012   0.765   1.034   2.853 -0.1690 -0.2131  0.0014
  272THF     C3 4013   0.828   0.907   2.793 -0.6694 -0.3532  0.3149
  272THF     O1 4014   0.847   0.943   2.657 -0.3084  0.0256 -0.2667
  272THF     C4 4015   0.916   1.074   2.665 -0.1243 -0.0555  0.4831
  272THF     H1 4016   0.803   1.223   2.767  1.0443  0.9167  0.4470
  272THF     H2 4017   0.942   1.173   2.857 -1.3277  0.1642  1.4407
  272THF     H3 4018   0.665   1.046   2.810  0.3383  1.7243 -0.6921
  272THF     H4 4019   0.752   1.038   2.962 -1.8737 -3.4925 -0.0221
  272THF     H5 4020   0.923   0.886   2.842  0.7764  1.5235 -1.5446
  272THF     H6 4021   0.759   0.822   2.802 -0.9140 -0.3944 -1.6977
  272THF     H7 4022   1.022   1.053   2.682  0.2259 -0.4012 -1.9345
  272THF     H8 4023   0.907   1.133   2.573  0.6857  0.7440  0.9200
  273THF     C1 4024   3.235   3.136   2.323 -0.4647 -0.6910 -0.0298
  273THF     C2 4025   3.205   3.288   2.329 -0.0352 -0.7748  0.3147
  273THF     C3 4026   3.339   3.349   2.289 -1.0364  0.0076 -0.0253
  273THF     O1 4027   3.439   3.244   2.291  0.0929  0.7338 -0.2759
  273THF     C4 4028   3.364   3.134   2.244  0.9083  0.1348  0.4113
  273THF     H1 4029   3.238   3.086   2.420 -1.4137 -0.8304 -0.0699
  273THF     H2 4030   3.148   3.088   2.276 -2.3111  1.8885  0.6371
  273THF     H3 4031   3.167   3.315   2.429  2.3729  0.4446  0.9484
  273THF     H4 4032   3.120   3.320   2.268 -0.0709  0.3308  0.9241
  273THF     H5 4033   3.332   3.397   2.190 -1.6105  1.1713  0.5771
  273THF     H6 4034   3.374   3.427   2.357  1.2690  1.6177 -2.9261
  273THF     H7 4035   3.347   3.147   2.136 -1.3700  1.0702  0.8643
  273THF     H8 4036   3.425   3.046   2.269  2.9679  1.5916  0.6896
  274THF     C1 4037   1.524   0.948   2.779 -0.3651  0.1689  0.0587
  274THF     C2 4038   1.454   0.822   2.718 -0.1381  0.0921 -1.1439
  274THF     C3 4039   1.305   0.855   2.760  0.5075 -0.1470 -0.4061
  274THF     O1 4040   1.300   1.003   2.773  0.4634  0.4743  0.1289
  274THF     C4 4041   1.421   1.055   2.731 -0.5240  0.5810 -0.4199
  274THF     H1 4042   1.532   0.945   2.888 -0.4060 -0.0084  0.0572
  274THF     H2 4043   1.626   0.961   2.742 -0.0334  1.3747  1.3718
  274THF     H3 4044   1.482   0.726   2.763 -0.9586  0.5917  0.4925
  274THF     H4 4045   1.468   0.813   2.610 -0.6238  0.5999 -1.2516
  274THF     H5 4046   1.231   0.828   2.683  1.1931  0.2960 -1.2355
  274THF     H6 4047   1.279   0.804   2.854  1.3769  0.3522  0.1098
  274THF     H7 4048   1.428   1.058   2.621  1.0433 -2.5235 -0.4898
  274THF     H8 4049   1.438   1.158   2.764 -0.0337  0.4026 -0.1128
  275THF     C1 4050   0.416   1.935   3.627 -0.1258  0.4779 -0.3697
  275THF     C2 4051   0.341   2.018   3.744  0.0098 -0.0676  0.1887
  275THF     C3 4052   0.231   1.915   3.783 -0.3673 -0.0146  0.1643
  275THF     O1 4053   0.184   1.875   3.651 -0.4681  0.1743  0.1749
  275THF     C4 4054   0.298   1.847   3.572 -0.4029 -0.0568  0.5889
  275THF     H1 4055   0.472   1.993   3.553 -2.2891  0.7048 -1.8756
  275THF     H2 4056   0.492   1.870   3.671  0.1591  1.9194  1.3399
  275THF     H3 4057   0.301   2.112   3.704 -0.6534 -0.6054 -0.4304
  275THF     H4 4058   0.406   2.055   3.824  0.4723 -1.1045  0.3027
  275THF     H5 4059   0.271   1.825   3.832 -2.2520 -0.0040  1.7593
  275THF     H6 4060   0.150   1.951   3.847  0.1923  2.4454 -0.4668
  275THF     H7 4061   0.318   1.740   3.588  0.6763 -0.2253 -1.7305
  275THF     H8 4062   0.271   1.866   3.468  1.6227  0.0677  0.0771
  276THF     C1 4063   2.970   0.287   2.303  1.1383  0.3150  0.1909
  276THF     C2 4064   3.089   0.190   2.302  0.5820 -0.0938 -0.6204
  276THF     C3 4065   3.204   0.277   2.256 -0.0504  0.0201 -0.4953
  276THF     O1 4066   3.155   0.413   2.251 -0.0036 -0.1630 -0.0164
  276THF     C4 4067   3.033   0.426   2.311 -0.0528  0.2748  0.0281
  276THF     H1 4068   2.912   0.277   2.211 -0.9816 -1.5739  1.6817
  276THF     H2 4069   2.891   0.267   2.376  0.9804 -0.3181 -0.1557
  276THF     H3 4070   3.068   0.094   2.254  2.8069 -1.1620  0.4852
  276THF     H4 4071   3.114   0.177   2.408  3.0403  2.4067 -0.8379
  276THF     H5 4072   3.288   0.271   2.327 -1.2739  1.2059  1.1018
  276THF     H6 4073   3.241   0.241   2.159 -1.0868 -1.5054 -0.3272
  276THF     H7 4074   3.049   0.471   2.410 -2.7057  1.6374 -0.0968
  276THF     H8 4075   2.989   0.501   2.244  2.8417  2.7205  0.7859
  277THF     C1 4076   2.484   3.404   2.429 -0.0986 -0.4524  0.1713
  277THF     C2 4077   2.482   3.449   2.279  0.1657 -0.7537  0.6355
  277THF     C3 4078   2.449   3.603   2.302  0.1502  0.4053 -1.1657
  277THF     O1 4079   2.538   3.635   2.407  0.0984  0.1236 -0.4668
  277THF     C4 4080   2.562   3.520   2.490  0.6456 -0.7185  0.8048
  277THF     H1 4081   2.392   3.403   2.488  1.0695 -0.1750  2.0223
  277THF     H2 4082   2.534   3.308   2.440 -0.1600 -0.3186  1.6545
  277THF     H3 4083   2.416   3.405   2.204  0.5235  3.1570 -2.1419
  277THF     H4 4084   2.579   3.452   2.228 -0.3936  0.2871 -0.4006
  277THF     H5 4085   2.477   3.665   2.217 -1.7264  0.5547 -1.6931
  277THF     H6 4086   2.347   3.631   2.333 -0.2639 -1.2214 -0.9927
  277THF     H7 4087   2.670   3.502   2.502  0.9912  1.1739  0.7432
  277THF     H8 4088   2.527   3.537   2.592 -1.1637 -1.3736  0.3116
  278THF     C1 4089   0.916   0.499   2.755 -0.3648  0.2851 -0.1271
  278THF     C2 4090   0.983   0.462   2.884  0.2398 -0.1813  0.0804
  278THF     C3 4091   1.099   0.561   2.891 -0.7524  0.2222 -0.0185
  278THF     O1 4092   1.126   0.612   2.762  0.6558  0.2636 -0.3009
  278THF     C4 4093   1.031   0.554   2.668  0.6647 -0.2431 -0.2863
  278THF     H1 4094   0.876   0.416   2.695 -0.1639  1.2048 -1.5673
  278THF     H2 4095   0.838   0.574   2.774  1.2549  1.8214  0.6399
  278THF     H3 4096   1.025   0.360   2.888  0.7579  0.0172 -0.2236
  278THF     H4 4097   0.919   0.462   2.973 -1.2540  2.5395 -0.9558
  278THF     H5 4098   1.085   0.651   2.952  1.7044  0.4173  0.2918
  278THF     H6 4099   1.189   0.510   2.927  0.1397  1.8946  0.1242
  278THF     H7 4100   1.005   0.644   2.611 -0.1274 -0.6135 -0.5136
  278THF     H8 4101   1.079   0.481   2.603  0.7215 -1.1062  0.7129
  279THF     C1 4102   1.963   0.937   3.709  0.4464  0.0265 -0.5136
  279THF     C2 4103   1.979   0.913   3.858 -0.0676 -0.1321 -0.2327
  279THF     C3 4104   2.127   0.953   3.886  0.1648 -0.3032 -0.2692
  279THF     O1 4105   2.189   0.963   3.764  0.1153 -0.4955 -0.0358
  279THF     C4 4106   2.085   1.024   3.680  0.4006  0.6081 -0.1377
  279THF     H1 4107   1.968   0.846   3.649  0.5235  0.2897 -0.9117
  279THF     H2 4108   1.860   0.967   3.687  0.0082  0.1075  1.5787
  279THF     H3 4109   1.960   0.808   3.881  2.2535 -0.5212  0.0354
  279THF     H4 4110   1.916   0.972   3.926  3.9062  2.0543  1.7544
  279THF     H5 4111   2.130   1.046   3.945  0.6171 -1.2813  1.2998
  279THF     H6 4112   2.182   0.883   3.950  1.7802  0.7036 -0.5295
  279THF     H7 4113   2.069   1.126   3.716  0.0945  1.2701 -2.0992
  279THF     H8 4114   2.107   1.023   3.573  2.7396  0.3683  0.3228
  280THF     C1 4115   1.733   0.236   3.651 -0.2468 -0.6222  0.4234
  280THF     C2 4116   1.699   0.265   3.806 -0.5631  0.0415 -0.4470
  280THF     C3 4117   1.835   0.262   3.876  0.5881  0.2582  0.2147
  280THF     O1 4118   1.935   0.260   3.773 -0.0141 -0.0914  0.3765
  280THF     C4 4119   1.880   0.188   3.659  0.2669 -0.1409  0.5139
  280THF     H1 4120   1.663   0.170   3.598  1.0786 -1.6348 -0.0789
  280THF     H2 4121   1.732   0.335   3.602 -0.8087 -0.7424  0.1919
  280THF     H3 4122   1.633   0.202   3.867  1.1933 -0.3246  1.1386
  280THF     H4 4123   1.663   0.367   3.819 -0.0697  0.2304 -0.5657
  280THF     H5 4124   1.833   0.342   3.951 -0.1440  1.9137 -1.5657
  280THF     H6 4125   1.836   0.166   3.930 -0.4001 -0.1104 -0.4254
  280THF     H7 4126   1.937   0.214   3.569  0.3157 -3.7229 -0.5416
  280THF     H8 4127   1.890   0.080   3.673  0.6290 -0.0763  0.7658
  281THF     C1 4128   0.605   0.875   3.179  0.3736  0.0211 -0.5155
  281THF     C2 4129   0.657   0.882   3.322  0.3807  0.7816  0.4901
  281THF     C3 4130   0.533   0.920   3.398 -0.4867  0.2150  0.6496
  281THF     O1 4131   0.485   1.033   3.310  0.1759  0.0087  0.4177
  281THF     C4 4132   0.495   0.984   3.169  0.6962 -0.3208 -0.4247
  281THF     H1 4133   0.686   0.886   3.106  1.3291 -1.5952  0.2716
  281THF     H2 4134   0.565   0.777   3.149  1.0626 -0.4927  0.2138
  281THF     H3 4135   0.734   0.959   3.335 -1.0708  2.7065 -1.8824
  281THF     H4 4136   0.698   0.791   3.367 -2.0376 -1.1046 -0.9960
  281THF     H5 4137   0.455   0.842   3.399  0.0788 -0.3991 -1.3899
  281THF     H6 4138   0.554   0.940   3.504 -0.9451  1.4236  0.5195
  281THF     H7 4139   0.401   0.933   3.145 -0.8270  1.1344  2.2251
  281THF     H8 4140   0.542   1.063   3.109  1.3272  0.9102  1.6088
  282THF     C1 4141   1.074   0.922   2.409 -0.3382  0.5330 -0.2088
  282THF     C2 4142   1.200   0.856   2.333 -0.2367  0.6136 -0.5926
  282THF     C3 4143   1.227   0.951   2.218 -0.1314 -0.3290  0.1161
  282THF     O1 4144   1.195   1.080   2.268  0.1248 -0.0242 -0.0240
  282THF     C4 4145   1.070   1.065   2.351  0.0253 -0.7689  0.1691
  282THF     H1 4146   0.976   0.878   2.386 -1.5256  1.8750  2.0767
  282THF     H2 4147   1.080   0.922   2.518  0.5277 -0.5453 -0.2506
  282THF     H3 4148   1.179   0.754   2.300  0.5659  0.4437 -0.6006
  282THF     H4 4149   1.286   0.843   2.400 -0.1288  0.5693 -0.7381
  282THF     H5 4150   1.330   0.944   2.181 -0.1469  1.1040 -0.2215
  282THF     H6 4151   1.147   0.938   2.144  1.1679 -0.3661 -1.3100
  282THF     H7 4152   1.066   1.143   2.429 -0.6425 -1.0652  0.4356
  282THF     H8 4153   0.988   1.084   2.280 -0.3520 -0.8776  0.5805
  283THF     C1 4154   2.335   2.847   1.137  0.3092  0.9858 -0.0496
  283THF     C2 4155   2.367   2.742   1.028  0.2136  0.2154  0.1015
  283THF     C3 4156   2.414   2.834   0.918  0.5130  0.7524 -0.7083
  283THF     O1 4157   2.349   2.962   0.937  0.0262  0.0450 -0.4823
  283THF     C4 4158   2.254   2.947   1.048 -1.0352 -0.0141  0.2827
  283THF     H1 4159   2.270   2.804   1.214 -0.9672  2.1729 -0.4451
  283THF     H2 4160   2.423   2.889   1.187  0.6442 -1.0962  1.1984
  283THF     H3 4161   2.279   2.683   1.002  0.0055  0.5809 -0.0232
  283THF     H4 4162   2.442   2.669   1.060 -1.0776 -1.1153  0.1243
  283THF     H5 4163   2.523   2.846   0.922  0.9172 -2.3589 -1.0247
  283THF     H6 4164   2.391   2.791   0.820  2.5572 -0.0247 -0.8618
  283THF     H7 4165   2.243   3.048   1.090  0.2067  0.0297  0.5162
  283THF     H8 4166   2.159   2.899   1.020 -0.4675 -1.2575  0.4485
  284THF     C1 4167   2.628   1.293   3.747  0.0356 -0.5297 -0.1866
  284THF     C2 4168   2.498   1.260   3.818  0.4909  0.6271 -0.2394
  284THF     C3 4169   2.505   1.359   3.934  0.5948 -0.3853  0.5101
  284THF     O1 4170   2.581   1.479   3.891 -0.2652 -0.6809  0.3078
  284THF     C4 4171   2.636   1.448   3.762  0.4557  0.2593 -0.1541
  284THF     H1 4172   2.716   1.251   3.798  1.0838 -0.6851 -2.0972
  284THF     H2 4173   2.625   1.260   3.643  1.3920 -0.1764 -0.3505
  284THF     H3 4174   2.486   1.154   3.846  2.5585  0.7665  1.2645
  284THF     H4 4175   2.406   1.281   3.763  0.9576  0.7185 -0.9793
  284THF     H5 4176   2.408   1.386   3.978 -0.9247 -3.2963 -0.9361
  284THF     H6 4177   2.568   1.304   4.006 -0.3593 -1.2058  0.7297
  284THF     H7 4178   2.567   1.500   3.694  0.2476  0.6752  0.3711
  284THF     H8 4179   2.735   1.493   3.747  1.4785 -1.5599  0.9925
  285THF     C1 4180   2.318   0.755   2.862 -0.3497 -0.2659  0.6208
  285THF     C2 4181   2.468   0.709   2.863 -1.0164  0.4972  0.1553
  285THF     C3 4182   2.545   0.838   2.839  0.5402  0.0315 -0.6012
  285THF     O1 4183   2.449   0.943   2.830  0.2671  0.0279  0.6947
  285THF     C4 4184   2.332   0.905   2.904 -0.4999 -0.3160  0.1745
  285THF     H1 4185   2.275   0.745   2.762 -0.3299  2.4689  0.3108
  285THF     H2 4186   2.245   0.698   2.921 -0.7467  0.6665  1.0298
  285THF     H3 4187   2.495   0.632   2.790 -0.9627 -0.0098  0.7092
  285THF     H4 4188   2.498   0.671   2.961  2.4044 -2.6592 -1.9962
  285THF     H5 4189   2.604   0.868   2.926 -0.2269 -0.3827  0.0739
  285THF     H6 4190   2.610   0.842   2.750  3.8067  0.0837  1.6933
  285THF     H7 4191   2.351   0.907   3.012 -1.0708 -0.1439  0.2758
  285THF     H8 4192   2.245   0.968   2.882 -0.9315 -0.7363  0.6659
  286THF     C1 4193   3.049   2.794   2.679  0.0580  0.4145 -0.3112
  286THF     C2 4194   2.923   2.881   2.676  0.6496 -0.4932 -0.1991
  286THF     C3 4195   2.982   3.017   2.736 -0.3219 -0.9747  0.0492
  286THF     O1 4196   3.086   2.974   2.829  0.4026  0.4233 -0.4737
  286THF     C4 4197   3.096   2.829   2.822 -0.2745 -0.9868 -0.0289
  286THF     H1 4198   3.029   2.687   2.661 -1.8076  0.7820 -0.5374
  286THF     H2 4199   3.124   2.825   2.606  2.7304 -0.1703  2.0862
  286THF     H3 4200   2.855   2.846   2.756  0.5428  0.7494  0.2593
  286THF     H4 4201   2.873   2.887   2.578  2.6026 -2.6552 -1.3740
  286THF     H5 4202   3.029   3.076   2.656 -0.5047  0.4688  1.0017
  286THF     H6 4203   2.906   3.077   2.787 -0.2059 -1.1954  0.4767
  286THF     H7 4204   3.197   2.799   2.852  0.2918  0.8963 -0.0284
  286THF     H8 4205   3.033   2.793   2.905  1.3262 -0.7832  1.3091
  287THF     C1 4206   3.349   0.810   2.331  0.2156 -0.0722  0.8296
  287THF     C2 4207   3.485   0.802   2.386  0.4358 -0.2719 -0.0423
  287THF     C3 4208   3.551   0.914   2.314 -0.2846 -0.2520  0.1817
  287THF     O1 4209   3.453   1.015   2.336  0.1301  0.1857  0.2632
  287THF     C4 4210   3.318   0.956   2.314 -0.4387 -0.1608  0.1825
  287THF     H1 4211   3.330   0.761   2.234  4.5479  0.9458 -0.6451
  287THF     H2 4212   3.280   0.755   2.395  0.5157  0.0722  1.2761
  287THF     H3 4213   3.538   0.707   2.373 -0.9707 -0.9986 -0.5615
  287THF     H4 4214   3.506   0.819   2.492 -1.5884  1.7245  0.0767
  287THF     H5 4215   3.647   0.944   2.358 -0.2528  0.0525 -0.0987
  287THF     H6 4216   3.551   0.889   2.207 -1.5251  1.0436 -0.1323
  287THF     H7 4217   3.249   1.000   2.386  0.8996  2.8675 -0.2962
  287THF     H8 4218   3.287   0.970   2.209 -1.9675  0.8750  0.7667
  288THF     C1 4219   0.423   3.426   3.604  0.0265  0.4966 -0.4169
  288THF     C2 4220   0.404   3.279   3.555  0.7202 -0.0652  0.3837
  288THF     C3 4221   0.541   3.247   3.473 -0.2831 -0.5085 -0.2491
  288THF     O1 4222   0.628   3.342   3.530  0.4862 -0.5132  0.4627
  288THF     C4 4223   0.555   3.469   3.546  0.1865 -0.5447  0.3674
  288THF     H1 4224   0.351   3.503   3.573 -1.0029 -0.9865 -1.7416
  288THF     H2 4225   0.442   3.424   3.712  0.5912  2.0711 -0.4679
  288THF     H3 4226   0.325   3.273   3.480  0.7857  1.5675  0.1595
  288THF     H4 4227   0.389   3.206   3.636  0.8577 -0.6531 -0.1180
  288THF     H5 4228   0.573   3.145   3.495 -0.3467 -0.6978 -1.0044
  288THF     H6 4229   0.542   3.263   3.364  0.4671  1.4670  0.0191
  288THF     H7 4230   0.620   3.542   3.595 -0.9843  2.1837 -1.9838
  288THF     H8 4231   0.531   3.502   3.444  3.2166  0.1049 -0.1859
  289THF     C1 4232   2.004   0.081   0.443 -0.1277  0.6687  0.0646
  289THF     C2 4233   1.907   0.153   0.546 -0.6523 -0.0960  0.0365
  289THF     C3 4234   1.941   0.299   0.542 -0.7754  0.7609 -0.2776
  289THF     O1 4235   2.078   0.304   0.478 -0.2457 -0.3761  0.1682
  289THF     C4 4236   2.066   0.205   0.373 -0.4339  0.1403  0.1432
  289THF     H1 4237   2.079   0.026   0.500 -1.7852 -1.7253 -0.0089
  289THF     H2 4238   1.948   0.014   0.377 -1.9330  1.5999  0.6212
  289THF     H3 4239   1.911   0.109   0.646  0.9929 -0.2794 -0.1006
  289THF     H4 4240   1.804   0.142   0.510 -0.6123 -0.9093  0.1614
  289THF     H5 4241   1.878   0.351   0.469  0.9076  2.1220 -0.7963
  289THF     H6 4242   1.941   0.344   0.642  2.2742  1.2519 -0.4391
  289THF     H7 4243   2.001   0.244   0.293 -0.2504 -2.0773 -1.1217
  289THF     H8 4244   2.169   0.189   0.338  0.3352  3.2589  0.7619
  290THF     C1 4245   2.757   2.414   0.409 -0.0566  0.9179 -0.0775
  290THF     C2 4246   2.815   2.313   0.312 -0.1670 -0.3860  0.3153
  290THF     C3 4247   2.955   2.381   0.280  0.5979 -0.7137  0.3028
  290THF     O1 4248   2.942   2.520   0.295  0.0485 -0.3239  0.1185
  290THF     C4 4249   2.805   2.540   0.334  0.3146  0.5647 -0.3864
  290THF     H1 4250   2.648   2.411   0.424 -0.1115 -0.2818 -0.6444
  290THF     H2 4251   2.806   2.406   0.506 -2.1838  0.7388  1.0279
  290THF     H3 4252   2.760   2.308   0.218 -0.3714 -1.0934  0.4680
  290THF     H4 4253   2.810   2.207   0.337 -1.7743 -0.5788 -0.7281
  290THF     H5 4254   3.017   2.334   0.358  0.1572 -0.6991  0.6690
  290THF     H6 4255   3.011   2.361   0.188  1.4815 -1.1364  0.9270
  290THF     H7 4256   2.797   2.628   0.398  0.1530  0.6154 -0.4766
  290THF     H8 4257   2.738   2.572   0.253 -0.0082 -0.3572 -0.4989
  291THF     C1 4258   1.564   0.654   2.289  0.2785  0.4523  0.2496
  291THF     C2 4259   1.583   0.595   2.431  0.3085  0.4035  0.1971
  291THF     C3 4260   1.434   0.562   2.476 -0.7469  0.0620 -0.1224
  291THF     O1 4261   1.361   0.548   2.360  0.3237 -0.8817  0.3039
  291THF     C4 4262   1.440   0.564   2.243 -1.0178  0.4474  0.2583
  291THF     H1 4263   1.537   0.760   2.302  0.0920  0.3644  0.5792
  291THF     H2 4264   1.652   0.639   2.225 -0.0313  0.2979 -0.1429
  291THF     H3 4265   1.633   0.663   2.500  0.7922  2.5280 -2.1802
  291THF     H4 4266   1.641   0.501   2.432 -2.5240 -1.4110  2.4693
  291THF     H5 4267   1.438   0.468   2.533  0.5738  0.1419 -0.0587
  291THF     H6 4268   1.386   0.641   2.534  0.0141  0.3723  0.0947
  291THF     H7 4269   1.479   0.467   2.209 -0.2429  0.9880 -0.4344
  291THF     H8 4270   1.377   0.605   2.163  0.4688  2.7491  0.2083
   3.40320   3.43847   3.80000
