; Generated comparator GAFF2; no surface-desorption qualification
[ defaults ]
1 2 yes 0.5 0.83333333
[ atomtypes ]
; name    at.num    mass    charge ptype  sigma      epsilon
c5             6  12.010000  0.00000000  A     0.33977095      0.4510352
os             8  16.000000  0.00000000  A     0.31560978      0.3037584
hc             1   1.008000  0.00000000  A      0.2600177      0.0870272
h1             1   1.008000  0.00000000  A     0.24219973      0.0870272



[ atomtypes ]
GR 6 12.011 0 A 0.3470 0.2750

PCX 12.011000 0.0051000 A 0.339967000 0.457730000
PCA 12.011000 0.0189000 A 0.339967000 0.457730000
PCE 12.011000 0.2801000 A 0.339967000 0.457730000
PC 12.011000 0.7464000 A 0.339967000 0.359824000
PO 15.999400 -0.5939000 A 0.295992200 0.878640000
POS 15.999400 -0.4617000 A 0.300001200 0.711280000
PHC 1.008000 0.0000000 A 0.264953300 0.065689000
PH1 1.008000 0.0000000 A 0.247135300 0.065689000

; Rigid sheet self-interactions are constant: omit G-G LJ only.
[ nonbond_params ]
GR GR 1 0.3470 0.0
[ moleculetype ]
GRAPHENE 0
[ atoms ]
1 GR 1 GR C1 1 0.0 12.011
2 GR 1 GR C2 2 0.0 12.011
3 GR 1 GR C3 3 0.0 12.011
4 GR 1 GR C4 4 0.0 12.011
5 GR 1 GR C5 5 0.0 12.011
6 GR 1 GR C6 6 0.0 12.011
7 GR 1 GR C7 7 0.0 12.011
8 GR 1 GR C8 8 0.0 12.011
9 GR 1 GR C9 9 0.0 12.011
10 GR 1 GR C10 10 0.0 12.011
11 GR 1 GR C11 11 0.0 12.011
12 GR 1 GR C12 12 0.0 12.011
13 GR 1 GR C13 13 0.0 12.011
14 GR 1 GR C14 14 0.0 12.011
15 GR 1 GR C15 15 0.0 12.011
16 GR 1 GR C16 16 0.0 12.011
17 GR 1 GR C17 17 0.0 12.011
18 GR 1 GR C18 18 0.0 12.011
19 GR 1 GR C19 19 0.0 12.011
20 GR 1 GR C20 20 0.0 12.011
21 GR 1 GR C21 21 0.0 12.011
22 GR 1 GR C22 22 0.0 12.011
23 GR 1 GR C23 23 0.0 12.011
24 GR 1 GR C24 24 0.0 12.011
25 GR 1 GR C25 25 0.0 12.011
26 GR 1 GR C26 26 0.0 12.011
27 GR 1 GR C27 27 0.0 12.011
28 GR 1 GR C28 28 0.0 12.011
29 GR 1 GR C29 29 0.0 12.011
30 GR 1 GR C30 30 0.0 12.011
31 GR 1 GR C31 31 0.0 12.011
32 GR 1 GR C32 32 0.0 12.011
33 GR 1 GR C33 33 0.0 12.011
34 GR 1 GR C34 34 0.0 12.011
35 GR 1 GR C35 35 0.0 12.011
36 GR 1 GR C36 36 0.0 12.011
37 GR 1 GR C37 37 0.0 12.011
38 GR 1 GR C38 38 0.0 12.011
39 GR 1 GR C39 39 0.0 12.011
40 GR 1 GR C40 40 0.0 12.011
41 GR 1 GR C41 41 0.0 12.011
42 GR 1 GR C42 42 0.0 12.011
43 GR 1 GR C43 43 0.0 12.011
44 GR 1 GR C44 44 0.0 12.011
45 GR 1 GR C45 45 0.0 12.011
46 GR 1 GR C46 46 0.0 12.011
47 GR 1 GR C47 47 0.0 12.011
48 GR 1 GR C48 48 0.0 12.011
49 GR 1 GR C49 49 0.0 12.011
50 GR 1 GR C50 50 0.0 12.011
51 GR 1 GR C51 51 0.0 12.011
52 GR 1 GR C52 52 0.0 12.011
53 GR 1 GR C53 53 0.0 12.011
54 GR 1 GR C54 54 0.0 12.011
55 GR 1 GR C55 55 0.0 12.011
56 GR 1 GR C56 56 0.0 12.011
57 GR 1 GR C57 57 0.0 12.011
58 GR 1 GR C58 58 0.0 12.011
59 GR 1 GR C59 59 0.0 12.011
60 GR 1 GR C60 60 0.0 12.011
61 GR 1 GR C61 61 0.0 12.011
62 GR 1 GR C62 62 0.0 12.011
63 GR 1 GR C63 63 0.0 12.011
64 GR 1 GR C64 64 0.0 12.011
65 GR 1 GR C65 65 0.0 12.011
66 GR 1 GR C66 66 0.0 12.011
67 GR 1 GR C67 67 0.0 12.011
68 GR 1 GR C68 68 0.0 12.011
69 GR 1 GR C69 69 0.0 12.011
70 GR 1 GR C70 70 0.0 12.011
71 GR 1 GR C71 71 0.0 12.011
72 GR 1 GR C72 72 0.0 12.011
73 GR 1 GR C73 73 0.0 12.011
74 GR 1 GR C74 74 0.0 12.011
75 GR 1 GR C75 75 0.0 12.011
76 GR 1 GR C76 76 0.0 12.011
77 GR 1 GR C77 77 0.0 12.011
78 GR 1 GR C78 78 0.0 12.011
79 GR 1 GR C79 79 0.0 12.011
80 GR 1 GR C80 80 0.0 12.011
81 GR 1 GR C81 81 0.0 12.011
82 GR 1 GR C82 82 0.0 12.011
83 GR 1 GR C83 83 0.0 12.011
84 GR 1 GR C84 84 0.0 12.011
85 GR 1 GR C85 85 0.0 12.011
86 GR 1 GR C86 86 0.0 12.011
87 GR 1 GR C87 87 0.0 12.011
88 GR 1 GR C88 88 0.0 12.011
89 GR 1 GR C89 89 0.0 12.011
90 GR 1 GR C90 90 0.0 12.011
91 GR 1 GR C91 91 0.0 12.011
92 GR 1 GR C92 92 0.0 12.011
93 GR 1 GR C93 93 0.0 12.011
94 GR 1 GR C94 94 0.0 12.011
95 GR 1 GR C95 95 0.0 12.011
96 GR 1 GR C96 96 0.0 12.011
97 GR 1 GR C97 97 0.0 12.011
98 GR 1 GR C98 98 0.0 12.011
99 GR 1 GR C99 99 0.0 12.011
100 GR 1 GR C100 100 0.0 12.011
101 GR 1 GR C101 101 0.0 12.011
102 GR 1 GR C102 102 0.0 12.011
103 GR 1 GR C103 103 0.0 12.011
104 GR 1 GR C104 104 0.0 12.011
105 GR 1 GR C105 105 0.0 12.011
106 GR 1 GR C106 106 0.0 12.011
107 GR 1 GR C107 107 0.0 12.011
108 GR 1 GR C108 108 0.0 12.011
109 GR 1 GR C109 109 0.0 12.011
110 GR 1 GR C110 110 0.0 12.011
111 GR 1 GR C111 111 0.0 12.011
112 GR 1 GR C112 112 0.0 12.011
113 GR 1 GR C113 113 0.0 12.011
114 GR 1 GR C114 114 0.0 12.011
115 GR 1 GR C115 115 0.0 12.011
116 GR 1 GR C116 116 0.0 12.011
117 GR 1 GR C117 117 0.0 12.011
118 GR 1 GR C118 118 0.0 12.011
119 GR 1 GR C119 119 0.0 12.011
120 GR 1 GR C120 120 0.0 12.011
121 GR 1 GR C121 121 0.0 12.011
122 GR 1 GR C122 122 0.0 12.011
123 GR 1 GR C123 123 0.0 12.011
124 GR 1 GR C124 124 0.0 12.011
125 GR 1 GR C125 125 0.0 12.011
126 GR 1 GR C126 126 0.0 12.011
127 GR 1 GR C127 127 0.0 12.011
128 GR 1 GR C128 128 0.0 12.011
129 GR 1 GR C129 129 0.0 12.011
130 GR 1 GR C130 130 0.0 12.011
131 GR 1 GR C131 131 0.0 12.011
132 GR 1 GR C132 132 0.0 12.011
133 GR 1 GR C133 133 0.0 12.011
134 GR 1 GR C134 134 0.0 12.011
135 GR 1 GR C135 135 0.0 12.011
136 GR 1 GR C136 136 0.0 12.011
137 GR 1 GR C137 137 0.0 12.011
138 GR 1 GR C138 138 0.0 12.011
139 GR 1 GR C139 139 0.0 12.011
140 GR 1 GR C140 140 0.0 12.011
141 GR 1 GR C141 141 0.0 12.011
142 GR 1 GR C142 142 0.0 12.011
143 GR 1 GR C143 143 0.0 12.011
144 GR 1 GR C144 144 0.0 12.011
145 GR 1 GR C145 145 0.0 12.011
146 GR 1 GR C146 146 0.0 12.011
147 GR 1 GR C147 147 0.0 12.011
148 GR 1 GR C148 148 0.0 12.011
149 GR 1 GR C149 149 0.0 12.011
150 GR 1 GR C150 150 0.0 12.011
151 GR 1 GR C151 151 0.0 12.011
152 GR 1 GR C152 152 0.0 12.011
153 GR 1 GR C153 153 0.0 12.011
154 GR 1 GR C154 154 0.0 12.011
155 GR 1 GR C155 155 0.0 12.011
156 GR 1 GR C156 156 0.0 12.011
157 GR 1 GR C157 157 0.0 12.011
158 GR 1 GR C158 158 0.0 12.011
159 GR 1 GR C159 159 0.0 12.011
160 GR 1 GR C160 160 0.0 12.011
161 GR 1 GR C161 161 0.0 12.011
162 GR 1 GR C162 162 0.0 12.011
163 GR 1 GR C163 163 0.0 12.011
164 GR 1 GR C164 164 0.0 12.011
165 GR 1 GR C165 165 0.0 12.011
166 GR 1 GR C166 166 0.0 12.011
167 GR 1 GR C167 167 0.0 12.011
168 GR 1 GR C168 168 0.0 12.011
169 GR 1 GR C169 169 0.0 12.011
170 GR 1 GR C170 170 0.0 12.011
171 GR 1 GR C171 171 0.0 12.011
172 GR 1 GR C172 172 0.0 12.011
173 GR 1 GR C173 173 0.0 12.011
174 GR 1 GR C174 174 0.0 12.011
175 GR 1 GR C175 175 0.0 12.011
176 GR 1 GR C176 176 0.0 12.011
177 GR 1 GR C177 177 0.0 12.011
178 GR 1 GR C178 178 0.0 12.011
179 GR 1 GR C179 179 0.0 12.011
180 GR 1 GR C180 180 0.0 12.011
181 GR 1 GR C181 181 0.0 12.011
182 GR 1 GR C182 182 0.0 12.011
183 GR 1 GR C183 183 0.0 12.011
184 GR 1 GR C184 184 0.0 12.011
185 GR 1 GR C185 185 0.0 12.011
186 GR 1 GR C186 186 0.0 12.011
187 GR 1 GR C187 187 0.0 12.011
188 GR 1 GR C188 188 0.0 12.011
189 GR 1 GR C189 189 0.0 12.011
190 GR 1 GR C190 190 0.0 12.011
191 GR 1 GR C191 191 0.0 12.011
192 GR 1 GR C192 192 0.0 12.011
193 GR 1 GR C193 193 0.0 12.011
194 GR 1 GR C194 194 0.0 12.011
195 GR 1 GR C195 195 0.0 12.011
196 GR 1 GR C196 196 0.0 12.011
197 GR 1 GR C197 197 0.0 12.011
198 GR 1 GR C198 198 0.0 12.011
199 GR 1 GR C199 199 0.0 12.011
200 GR 1 GR C200 200 0.0 12.011
201 GR 1 GR C201 201 0.0 12.011
202 GR 1 GR C202 202 0.0 12.011
203 GR 1 GR C203 203 0.0 12.011
204 GR 1 GR C204 204 0.0 12.011
205 GR 1 GR C205 205 0.0 12.011
206 GR 1 GR C206 206 0.0 12.011
207 GR 1 GR C207 207 0.0 12.011
208 GR 1 GR C208 208 0.0 12.011
209 GR 1 GR C209 209 0.0 12.011
210 GR 1 GR C210 210 0.0 12.011
211 GR 1 GR C211 211 0.0 12.011
212 GR 1 GR C212 212 0.0 12.011
213 GR 1 GR C213 213 0.0 12.011
214 GR 1 GR C214 214 0.0 12.011
215 GR 1 GR C215 215 0.0 12.011
216 GR 1 GR C216 216 0.0 12.011
217 GR 1 GR C217 217 0.0 12.011
218 GR 1 GR C218 218 0.0 12.011
219 GR 1 GR C219 219 0.0 12.011
220 GR 1 GR C220 220 0.0 12.011
221 GR 1 GR C221 221 0.0 12.011
222 GR 1 GR C222 222 0.0 12.011
223 GR 1 GR C223 223 0.0 12.011
224 GR 1 GR C224 224 0.0 12.011
225 GR 1 GR C225 225 0.0 12.011
226 GR 1 GR C226 226 0.0 12.011
227 GR 1 GR C227 227 0.0 12.011
228 GR 1 GR C228 228 0.0 12.011
229 GR 1 GR C229 229 0.0 12.011
230 GR 1 GR C230 230 0.0 12.011
231 GR 1 GR C231 231 0.0 12.011
232 GR 1 GR C232 232 0.0 12.011
233 GR 1 GR C233 233 0.0 12.011
234 GR 1 GR C234 234 0.0 12.011
235 GR 1 GR C235 235 0.0 12.011
236 GR 1 GR C236 236 0.0 12.011
237 GR 1 GR C237 237 0.0 12.011
238 GR 1 GR C238 238 0.0 12.011
239 GR 1 GR C239 239 0.0 12.011
240 GR 1 GR C240 240 0.0 12.011
241 GR 1 GR C241 241 0.0 12.011
242 GR 1 GR C242 242 0.0 12.011
243 GR 1 GR C243 243 0.0 12.011
244 GR 1 GR C244 244 0.0 12.011
245 GR 1 GR C245 245 0.0 12.011
246 GR 1 GR C246 246 0.0 12.011
247 GR 1 GR C247 247 0.0 12.011
248 GR 1 GR C248 248 0.0 12.011
249 GR 1 GR C249 249 0.0 12.011
250 GR 1 GR C250 250 0.0 12.011
251 GR 1 GR C251 251 0.0 12.011
252 GR 1 GR C252 252 0.0 12.011
253 GR 1 GR C253 253 0.0 12.011
254 GR 1 GR C254 254 0.0 12.011
255 GR 1 GR C255 255 0.0 12.011
256 GR 1 GR C256 256 0.0 12.011
257 GR 1 GR C257 257 0.0 12.011
258 GR 1 GR C258 258 0.0 12.011
259 GR 1 GR C259 259 0.0 12.011
260 GR 1 GR C260 260 0.0 12.011
261 GR 1 GR C261 261 0.0 12.011
262 GR 1 GR C262 262 0.0 12.011
263 GR 1 GR C263 263 0.0 12.011
264 GR 1 GR C264 264 0.0 12.011
265 GR 1 GR C265 265 0.0 12.011
266 GR 1 GR C266 266 0.0 12.011
267 GR 1 GR C267 267 0.0 12.011
268 GR 1 GR C268 268 0.0 12.011
269 GR 1 GR C269 269 0.0 12.011
270 GR 1 GR C270 270 0.0 12.011
271 GR 1 GR C271 271 0.0 12.011
272 GR 1 GR C272 272 0.0 12.011
273 GR 1 GR C273 273 0.0 12.011
274 GR 1 GR C274 274 0.0 12.011
275 GR 1 GR C275 275 0.0 12.011
276 GR 1 GR C276 276 0.0 12.011
277 GR 1 GR C277 277 0.0 12.011
278 GR 1 GR C278 278 0.0 12.011
279 GR 1 GR C279 279 0.0 12.011
280 GR 1 GR C280 280 0.0 12.011
281 GR 1 GR C281 281 0.0 12.011
282 GR 1 GR C282 282 0.0 12.011
283 GR 1 GR C283 283 0.0 12.011
284 GR 1 GR C284 284 0.0 12.011
285 GR 1 GR C285 285 0.0 12.011
286 GR 1 GR C286 286 0.0 12.011
287 GR 1 GR C287 287 0.0 12.011
288 GR 1 GR C288 288 0.0 12.011
289 GR 1 GR C289 289 0.0 12.011
290 GR 1 GR C290 290 0.0 12.011
291 GR 1 GR C291 291 0.0 12.011
292 GR 1 GR C292 292 0.0 12.011
293 GR 1 GR C293 293 0.0 12.011
294 GR 1 GR C294 294 0.0 12.011
295 GR 1 GR C295 295 0.0 12.011
296 GR 1 GR C296 296 0.0 12.011
297 GR 1 GR C297 297 0.0 12.011
298 GR 1 GR C298 298 0.0 12.011
299 GR 1 GR C299 299 0.0 12.011
300 GR 1 GR C300 300 0.0 12.011
301 GR 1 GR C301 301 0.0 12.011
302 GR 1 GR C302 302 0.0 12.011
303 GR 1 GR C303 303 0.0 12.011
304 GR 1 GR C304 304 0.0 12.011
305 GR 1 GR C305 305 0.0 12.011
306 GR 1 GR C306 306 0.0 12.011
307 GR 1 GR C307 307 0.0 12.011
308 GR 1 GR C308 308 0.0 12.011
309 GR 1 GR C309 309 0.0 12.011
310 GR 1 GR C310 310 0.0 12.011
311 GR 1 GR C311 311 0.0 12.011
312 GR 1 GR C312 312 0.0 12.011
313 GR 1 GR C313 313 0.0 12.011
314 GR 1 GR C314 314 0.0 12.011
315 GR 1 GR C315 315 0.0 12.011
316 GR 1 GR C316 316 0.0 12.011
317 GR 1 GR C317 317 0.0 12.011
318 GR 1 GR C318 318 0.0 12.011
319 GR 1 GR C319 319 0.0 12.011
320 GR 1 GR C320 320 0.0 12.011
321 GR 1 GR C321 321 0.0 12.011
322 GR 1 GR C322 322 0.0 12.011
323 GR 1 GR C323 323 0.0 12.011
324 GR 1 GR C324 324 0.0 12.011
325 GR 1 GR C325 325 0.0 12.011
326 GR 1 GR C326 326 0.0 12.011
327 GR 1 GR C327 327 0.0 12.011
328 GR 1 GR C328 328 0.0 12.011
329 GR 1 GR C329 329 0.0 12.011
330 GR 1 GR C330 330 0.0 12.011
331 GR 1 GR C331 331 0.0 12.011
332 GR 1 GR C332 332 0.0 12.011
333 GR 1 GR C333 333 0.0 12.011
334 GR 1 GR C334 334 0.0 12.011
335 GR 1 GR C335 335 0.0 12.011
336 GR 1 GR C336 336 0.0 12.011
337 GR 1 GR C337 337 0.0 12.011
338 GR 1 GR C338 338 0.0 12.011
339 GR 1 GR C339 339 0.0 12.011
340 GR 1 GR C340 340 0.0 12.011
341 GR 1 GR C341 341 0.0 12.011
342 GR 1 GR C342 342 0.0 12.011
343 GR 1 GR C343 343 0.0 12.011
344 GR 1 GR C344 344 0.0 12.011
345 GR 1 GR C345 345 0.0 12.011
346 GR 1 GR C346 346 0.0 12.011
347 GR 1 GR C347 347 0.0 12.011
348 GR 1 GR C348 348 0.0 12.011
349 GR 1 GR C349 349 0.0 12.011
350 GR 1 GR C350 350 0.0 12.011
351 GR 1 GR C351 351 0.0 12.011
352 GR 1 GR C352 352 0.0 12.011
353 GR 1 GR C353 353 0.0 12.011
354 GR 1 GR C354 354 0.0 12.011
355 GR 1 GR C355 355 0.0 12.011
356 GR 1 GR C356 356 0.0 12.011
357 GR 1 GR C357 357 0.0 12.011
358 GR 1 GR C358 358 0.0 12.011
359 GR 1 GR C359 359 0.0 12.011
360 GR 1 GR C360 360 0.0 12.011
361 GR 1 GR C361 361 0.0 12.011
362 GR 1 GR C362 362 0.0 12.011
363 GR 1 GR C363 363 0.0 12.011
364 GR 1 GR C364 364 0.0 12.011
365 GR 1 GR C365 365 0.0 12.011
366 GR 1 GR C366 366 0.0 12.011
367 GR 1 GR C367 367 0.0 12.011
368 GR 1 GR C368 368 0.0 12.011
369 GR 1 GR C369 369 0.0 12.011
370 GR 1 GR C370 370 0.0 12.011
371 GR 1 GR C371 371 0.0 12.011
372 GR 1 GR C372 372 0.0 12.011
373 GR 1 GR C373 373 0.0 12.011
374 GR 1 GR C374 374 0.0 12.011
375 GR 1 GR C375 375 0.0 12.011
376 GR 1 GR C376 376 0.0 12.011
377 GR 1 GR C377 377 0.0 12.011
378 GR 1 GR C378 378 0.0 12.011
379 GR 1 GR C379 379 0.0 12.011
380 GR 1 GR C380 380 0.0 12.011
381 GR 1 GR C381 381 0.0 12.011
382 GR 1 GR C382 382 0.0 12.011
383 GR 1 GR C383 383 0.0 12.011
384 GR 1 GR C384 384 0.0 12.011
385 GR 1 GR C385 385 0.0 12.011
386 GR 1 GR C386 386 0.0 12.011
387 GR 1 GR C387 387 0.0 12.011
388 GR 1 GR C388 388 0.0 12.011
389 GR 1 GR C389 389 0.0 12.011
390 GR 1 GR C390 390 0.0 12.011
391 GR 1 GR C391 391 0.0 12.011
392 GR 1 GR C392 392 0.0 12.011
393 GR 1 GR C393 393 0.0 12.011
394 GR 1 GR C394 394 0.0 12.011
395 GR 1 GR C395 395 0.0 12.011
396 GR 1 GR C396 396 0.0 12.011
397 GR 1 GR C397 397 0.0 12.011
398 GR 1 GR C398 398 0.0 12.011
399 GR 1 GR C399 399 0.0 12.011
400 GR 1 GR C400 400 0.0 12.011
401 GR 1 GR C401 401 0.0 12.011
402 GR 1 GR C402 402 0.0 12.011
403 GR 1 GR C403 403 0.0 12.011
404 GR 1 GR C404 404 0.0 12.011
405 GR 1 GR C405 405 0.0 12.011
406 GR 1 GR C406 406 0.0 12.011
407 GR 1 GR C407 407 0.0 12.011
408 GR 1 GR C408 408 0.0 12.011
409 GR 1 GR C409 409 0.0 12.011
410 GR 1 GR C410 410 0.0 12.011
411 GR 1 GR C411 411 0.0 12.011
412 GR 1 GR C412 412 0.0 12.011
413 GR 1 GR C413 413 0.0 12.011
414 GR 1 GR C414 414 0.0 12.011
415 GR 1 GR C415 415 0.0 12.011
416 GR 1 GR C416 416 0.0 12.011
417 GR 1 GR C417 417 0.0 12.011
418 GR 1 GR C418 418 0.0 12.011
419 GR 1 GR C419 419 0.0 12.011
420 GR 1 GR C420 420 0.0 12.011
421 GR 1 GR C421 421 0.0 12.011
422 GR 1 GR C422 422 0.0 12.011
423 GR 1 GR C423 423 0.0 12.011
424 GR 1 GR C424 424 0.0 12.011
425 GR 1 GR C425 425 0.0 12.011
426 GR 1 GR C426 426 0.0 12.011
427 GR 1 GR C427 427 0.0 12.011
428 GR 1 GR C428 428 0.0 12.011
429 GR 1 GR C429 429 0.0 12.011
430 GR 1 GR C430 430 0.0 12.011
431 GR 1 GR C431 431 0.0 12.011
432 GR 1 GR C432 432 0.0 12.011
433 GR 1 GR C433 433 0.0 12.011
434 GR 1 GR C434 434 0.0 12.011
435 GR 1 GR C435 435 0.0 12.011
436 GR 1 GR C436 436 0.0 12.011
437 GR 1 GR C437 437 0.0 12.011
438 GR 1 GR C438 438 0.0 12.011
439 GR 1 GR C439 439 0.0 12.011
440 GR 1 GR C440 440 0.0 12.011
441 GR 1 GR C441 441 0.0 12.011
442 GR 1 GR C442 442 0.0 12.011
443 GR 1 GR C443 443 0.0 12.011
444 GR 1 GR C444 444 0.0 12.011
445 GR 1 GR C445 445 0.0 12.011
446 GR 1 GR C446 446 0.0 12.011
447 GR 1 GR C447 447 0.0 12.011
448 GR 1 GR C448 448 0.0 12.011
; Source10.3390/polym13050830 SI TableS2; excluded 1-2/1-3, unscaled 1-4 assumption
[ moleculetype ]
PMMA 2
[ atoms ]
1 PCX 1 PMMA CX1    1 0.002550000 12.011000
2 PCA 1 PMMA CA2    2 0.018900000 12.011000
3 PCX 1 PMMA CX3    3 0.005100000 12.011000
4 PC 1 PMMA C4     4 0.746400000 12.011000
5 PO 1 PMMA O5     5 -0.593900000 15.999400
6 POS 1 PMMA OS6    6 -0.461700000 15.999400
7 PCE 1 PMMA CE7    7 0.280100000 12.011000
8 PCX 1 PMMA CX8    8 0.005100000 12.011000
9 PCA 1 PMMA CA9    9 0.018900000 12.011000
10 PCX 1 PMMA CX10   10 0.005100000 12.011000
11 PC 1 PMMA C11    11 0.746400000 12.011000
12 PO 1 PMMA O12    12 -0.593900000 15.999400
13 POS 1 PMMA OS13   13 -0.461700000 15.999400
14 PCE 1 PMMA CE14   14 0.280100000 12.011000
15 PCX 1 PMMA CX15   15 0.005100000 12.011000
16 PCA 1 PMMA CA16   16 0.018900000 12.011000
17 PCX 1 PMMA CX17   17 0.005100000 12.011000
18 PC 1 PMMA C18    18 0.746400000 12.011000
19 PO 1 PMMA O19    19 -0.593900000 15.999400
20 POS 1 PMMA OS20   20 -0.461700000 15.999400
21 PCE 1 PMMA CE21   21 0.280100000 12.011000
22 PCX 1 PMMA CX22   22 0.005100000 12.011000
23 PCA 1 PMMA CA23   23 0.018900000 12.011000
24 PCX 1 PMMA CX24   24 0.005100000 12.011000
25 PC 1 PMMA C25    25 0.746400000 12.011000
26 PO 1 PMMA O26    26 -0.593900000 15.999400
27 POS 1 PMMA OS27   27 -0.461700000 15.999400
28 PCE 1 PMMA CE28   28 0.280100000 12.011000
29 PCX 1 PMMA CX29   29 0.002550000 12.011000
30 PHC 1 PMMA HC30   30 0.000000000 1.008000
31 PHC 1 PMMA HC31   31 0.000000000 1.008000
32 PHC 1 PMMA HC32   32 0.000000000 1.008000
33 PHC 1 PMMA HC33   33 0.000000000 1.008000
34 PHC 1 PMMA HC34   34 0.000000000 1.008000
35 PHC 1 PMMA HC35   35 0.000000000 1.008000
36 PH1 1 PMMA H136   36 0.000000000 1.008000
37 PH1 1 PMMA H137   37 0.000000000 1.008000
38 PH1 1 PMMA H138   38 0.000000000 1.008000
39 PHC 1 PMMA HC39   39 0.000000000 1.008000
40 PHC 1 PMMA HC40   40 0.000000000 1.008000
41 PHC 1 PMMA HC41   41 0.000000000 1.008000
42 PHC 1 PMMA HC42   42 0.000000000 1.008000
43 PHC 1 PMMA HC43   43 0.000000000 1.008000
44 PH1 1 PMMA H144   44 0.000000000 1.008000
45 PH1 1 PMMA H145   45 0.000000000 1.008000
46 PH1 1 PMMA H146   46 0.000000000 1.008000
47 PHC 1 PMMA HC47   47 0.000000000 1.008000
48 PHC 1 PMMA HC48   48 0.000000000 1.008000
49 PHC 1 PMMA HC49   49 0.000000000 1.008000
50 PHC 1 PMMA HC50   50 0.000000000 1.008000
51 PHC 1 PMMA HC51   51 0.000000000 1.008000
52 PH1 1 PMMA H152   52 0.000000000 1.008000
53 PH1 1 PMMA H153   53 0.000000000 1.008000
54 PH1 1 PMMA H154   54 0.000000000 1.008000
55 PHC 1 PMMA HC55   55 0.000000000 1.008000
56 PHC 1 PMMA HC56   56 0.000000000 1.008000
57 PHC 1 PMMA HC57   57 0.000000000 1.008000
58 PHC 1 PMMA HC58   58 0.000000000 1.008000
59 PHC 1 PMMA HC59   59 0.000000000 1.008000
60 PH1 1 PMMA H160   60 0.000000000 1.008000
61 PH1 1 PMMA H161   61 0.000000000 1.008000
62 PH1 1 PMMA H162   62 0.000000000 1.008000
63 PHC 1 PMMA HC63   63 0.000000000 1.008000
64 PHC 1 PMMA HC64   64 0.000000000 1.008000
65 PHC 1 PMMA HC65   65 0.000000000 1.008000
[ bonds ]
1 2 1 0.152000000 259408.000000000
2 3 1 0.152000000 259408.000000000
2 4 1 0.150000000 276144.000000000
4 5 1 0.120400000 835963.200000000
4 6 1 0.134300000 344175.900000000
6 7 1 0.141000000 267776.000000000
2 8 1 0.152000000 259408.000000000
8 9 1 0.152000000 259408.000000000
9 10 1 0.152000000 259408.000000000
9 11 1 0.150000000 276144.000000000
11 12 1 0.120400000 835963.200000000
11 13 1 0.134300000 344175.900000000
13 14 1 0.141000000 267776.000000000
9 15 1 0.152000000 259408.000000000
15 16 1 0.152000000 259408.000000000
16 17 1 0.152000000 259408.000000000
16 18 1 0.150000000 276144.000000000
18 19 1 0.120400000 835963.200000000
18 20 1 0.134300000 344175.900000000
20 21 1 0.141000000 267776.000000000
16 22 1 0.152000000 259408.000000000
22 23 1 0.152000000 259408.000000000
23 24 1 0.152000000 259408.000000000
23 25 1 0.150000000 276144.000000000
25 26 1 0.120400000 835963.200000000
25 27 1 0.134300000 344175.900000000
27 28 1 0.141000000 267776.000000000
23 29 1 0.152000000 259408.000000000
1 30 1 0.109500000 301248.000000000
1 31 1 0.109500000 301248.000000000
1 32 1 0.109500000 301248.000000000
3 33 1 0.109500000 301248.000000000
3 34 1 0.109500000 301248.000000000
3 35 1 0.109500000 301248.000000000
7 36 1 0.109200000 343088.000000000
7 37 1 0.109200000 343088.000000000
7 38 1 0.109200000 343088.000000000
8 39 1 0.109500000 301248.000000000
8 40 1 0.109500000 301248.000000000
10 41 1 0.109500000 301248.000000000
10 42 1 0.109500000 301248.000000000
10 43 1 0.109500000 301248.000000000
14 44 1 0.109200000 343088.000000000
14 45 1 0.109200000 343088.000000000
14 46 1 0.109200000 343088.000000000
15 47 1 0.109500000 301248.000000000
15 48 1 0.109500000 301248.000000000
17 49 1 0.109500000 301248.000000000
17 50 1 0.109500000 301248.000000000
17 51 1 0.109500000 301248.000000000
21 52 1 0.109200000 343088.000000000
21 53 1 0.109200000 343088.000000000
21 54 1 0.109200000 343088.000000000
22 55 1 0.109500000 301248.000000000
22 56 1 0.109500000 301248.000000000
24 57 1 0.109500000 301248.000000000
24 58 1 0.109500000 301248.000000000
24 59 1 0.109500000 301248.000000000
28 60 1 0.109200000 343088.000000000
28 61 1 0.109200000 343088.000000000
28 62 1 0.109200000 343088.000000000
29 63 1 0.109500000 301248.000000000
29 64 1 0.109500000 301248.000000000
29 65 1 0.109500000 301248.000000000
[ angles ]
2 1 30 1 112.600000000 376.600000000
2 1 31 1 112.600000000 376.600000000
2 1 32 1 112.600000000 376.600000000
30 1 31 1 109.500000000 334.700000000
30 1 32 1 109.500000000 334.700000000
31 1 32 1 109.500000000 334.700000000
1 2 3 1 113.500000000 376.600000000
1 2 4 1 111.500000000 334.700000000
1 2 8 1 113.500000000 376.600000000
3 2 4 1 111.500000000 334.700000000
3 2 8 1 113.500000000 376.600000000
4 2 8 1 111.500000000 334.700000000
2 3 33 1 112.600000000 376.600000000
2 3 34 1 112.600000000 376.600000000
2 3 35 1 112.600000000 376.600000000
33 3 34 1 109.500000000 334.700000000
33 3 35 1 109.500000000 334.700000000
34 3 35 1 109.500000000 334.700000000
2 4 5 1 125.400000000 493.700000000
2 4 6 1 111.000000000 418.400000000
5 4 6 1 122.500000000 861.900000000
4 6 7 1 114.000000000 423.400000000
6 7 36 1 110.000000000 502.100000000
6 7 37 1 110.000000000 502.100000000
6 7 38 1 110.000000000 502.100000000
36 7 37 1 109.500000000 376.600000000
36 7 38 1 109.500000000 376.600000000
37 7 38 1 109.500000000 376.600000000
2 8 9 1 113.500000000 376.600000000
2 8 39 1 112.600000000 376.600000000
2 8 40 1 112.600000000 376.600000000
9 8 39 1 112.600000000 376.600000000
9 8 40 1 112.600000000 376.600000000
39 8 40 1 109.500000000 334.700000000
8 9 10 1 113.500000000 376.600000000
8 9 11 1 111.500000000 334.700000000
8 9 15 1 113.500000000 376.600000000
10 9 11 1 111.500000000 334.700000000
10 9 15 1 113.500000000 376.600000000
11 9 15 1 111.500000000 334.700000000
9 10 41 1 112.600000000 376.600000000
9 10 42 1 112.600000000 376.600000000
9 10 43 1 112.600000000 376.600000000
41 10 42 1 109.500000000 334.700000000
41 10 43 1 109.500000000 334.700000000
42 10 43 1 109.500000000 334.700000000
9 11 12 1 125.400000000 493.700000000
9 11 13 1 111.000000000 418.400000000
12 11 13 1 122.500000000 861.900000000
11 13 14 1 114.000000000 423.400000000
13 14 44 1 110.000000000 502.100000000
13 14 45 1 110.000000000 502.100000000
13 14 46 1 110.000000000 502.100000000
44 14 45 1 109.500000000 376.600000000
44 14 46 1 109.500000000 376.600000000
45 14 46 1 109.500000000 376.600000000
9 15 16 1 113.500000000 376.600000000
9 15 47 1 112.600000000 376.600000000
9 15 48 1 112.600000000 376.600000000
16 15 47 1 112.600000000 376.600000000
16 15 48 1 112.600000000 376.600000000
47 15 48 1 109.500000000 334.700000000
15 16 17 1 113.500000000 376.600000000
15 16 18 1 111.500000000 334.700000000
15 16 22 1 113.500000000 376.600000000
17 16 18 1 111.500000000 334.700000000
17 16 22 1 113.500000000 376.600000000
18 16 22 1 111.500000000 334.700000000
16 17 49 1 112.600000000 376.600000000
16 17 50 1 112.600000000 376.600000000
16 17 51 1 112.600000000 376.600000000
49 17 50 1 109.500000000 334.700000000
49 17 51 1 109.500000000 334.700000000
50 17 51 1 109.500000000 334.700000000
16 18 19 1 125.400000000 493.700000000
16 18 20 1 111.000000000 418.400000000
19 18 20 1 122.500000000 861.900000000
18 20 21 1 114.000000000 423.400000000
20 21 52 1 110.000000000 502.100000000
20 21 53 1 110.000000000 502.100000000
20 21 54 1 110.000000000 502.100000000
52 21 53 1 109.500000000 376.600000000
52 21 54 1 109.500000000 376.600000000
53 21 54 1 109.500000000 376.600000000
16 22 23 1 113.500000000 376.600000000
16 22 55 1 112.600000000 376.600000000
16 22 56 1 112.600000000 376.600000000
23 22 55 1 112.600000000 376.600000000
23 22 56 1 112.600000000 376.600000000
55 22 56 1 109.500000000 334.700000000
22 23 24 1 113.500000000 376.600000000
22 23 25 1 111.500000000 334.700000000
22 23 29 1 113.500000000 376.600000000
24 23 25 1 111.500000000 334.700000000
24 23 29 1 113.500000000 376.600000000
25 23 29 1 111.500000000 334.700000000
23 24 57 1 112.600000000 376.600000000
23 24 58 1 112.600000000 376.600000000
23 24 59 1 112.600000000 376.600000000
57 24 58 1 109.500000000 334.700000000
57 24 59 1 109.500000000 334.700000000
58 24 59 1 109.500000000 334.700000000
23 25 26 1 125.400000000 493.700000000
23 25 27 1 111.000000000 418.400000000
26 25 27 1 122.500000000 861.900000000
25 27 28 1 114.000000000 423.400000000
27 28 60 1 110.000000000 502.100000000
27 28 61 1 110.000000000 502.100000000
27 28 62 1 110.000000000 502.100000000
60 28 61 1 109.500000000 376.600000000
60 28 62 1 109.500000000 376.600000000
61 28 62 1 109.500000000 376.600000000
23 29 63 1 112.600000000 376.600000000
23 29 64 1 112.600000000 376.600000000
23 29 65 1 112.600000000 376.600000000
63 29 64 1 109.500000000 334.700000000
63 29 65 1 109.500000000 334.700000000
64 29 65 1 109.500000000 334.700000000
[ dihedrals ]
30 1 2 3 9 0.0 0.418400000 3
30 1 2 4 9 0.0 -0.125520000 3
30 1 2 8 9 0.0 0.418400000 3
31 1 2 3 9 0.0 0.418400000 3
31 1 2 4 9 0.0 -0.125520000 3
31 1 2 8 9 0.0 0.418400000 3
32 1 2 3 9 0.0 0.418400000 3
32 1 2 4 9 0.0 -0.125520000 3
32 1 2 8 9 0.0 0.418400000 3
1 2 3 33 9 0.0 0.418400000 3
1 2 3 34 9 0.0 0.418400000 3
1 2 3 35 9 0.0 0.418400000 3
4 2 3 33 9 0.0 -0.125520000 3
4 2 3 34 9 0.0 -0.125520000 3
4 2 3 35 9 0.0 -0.125520000 3
8 2 3 33 9 0.0 0.418400000 3
8 2 3 34 9 0.0 0.418400000 3
8 2 3 35 9 0.0 0.418400000 3
1 2 4 5 9 0.0 -1.715400000 2
1 2 4 5 9 0.0 -1.213400000 3
1 2 4 6 9 0.0 -1.882800000 2
1 2 4 6 9 0.0 -1.380700000 3
3 2 4 5 9 0.0 -1.715400000 2
3 2 4 5 9 0.0 -1.213400000 3
3 2 4 6 9 0.0 -1.882800000 2
3 2 4 6 9 0.0 -1.380700000 3
8 2 4 5 9 0.0 -1.715400000 2
8 2 4 5 9 0.0 -1.213400000 3
8 2 4 6 9 0.0 -1.882800000 2
8 2 4 6 9 0.0 -1.380700000 3
2 4 6 7 9 0.0 -2.719600000 1
2 4 6 7 9 0.0 -11.506000000 2
5 4 6 7 9 0.0 -17.614640000 2
5 4 6 7 9 0.0 -3.054320000 3
4 6 7 36 9 0.0 0.627600000 3
4 6 7 37 9 0.0 0.627600000 3
4 6 7 38 9 0.0 0.627600000 3
1 2 8 9 9 0.0 1.882800000 1
1 2 8 39 9 0.0 0.418400000 3
1 2 8 40 9 0.0 0.418400000 3
3 2 8 9 9 0.0 1.882800000 1
3 2 8 39 9 0.0 0.418400000 3
3 2 8 40 9 0.0 0.418400000 3
4 2 8 39 9 0.0 -0.125520000 3
4 2 8 40 9 0.0 -0.125520000 3
2 8 9 10 9 0.0 1.882800000 1
2 8 9 15 9 0.0 1.882800000 1
39 8 9 10 9 0.0 0.418400000 3
39 8 9 11 9 0.0 -0.125520000 3
39 8 9 15 9 0.0 0.418400000 3
40 8 9 10 9 0.0 0.418400000 3
40 8 9 11 9 0.0 -0.125520000 3
40 8 9 15 9 0.0 0.418400000 3
8 9 10 41 9 0.0 0.418400000 3
8 9 10 42 9 0.0 0.418400000 3
8 9 10 43 9 0.0 0.418400000 3
11 9 10 41 9 0.0 -0.125520000 3
11 9 10 42 9 0.0 -0.125520000 3
11 9 10 43 9 0.0 -0.125520000 3
15 9 10 41 9 0.0 0.418400000 3
15 9 10 42 9 0.0 0.418400000 3
15 9 10 43 9 0.0 0.418400000 3
8 9 11 12 9 0.0 -1.715400000 2
8 9 11 12 9 0.0 -1.213400000 3
8 9 11 13 9 0.0 -1.882800000 2
8 9 11 13 9 0.0 -1.380700000 3
10 9 11 12 9 0.0 -1.715400000 2
10 9 11 12 9 0.0 -1.213400000 3
10 9 11 13 9 0.0 -1.882800000 2
10 9 11 13 9 0.0 -1.380700000 3
15 9 11 12 9 0.0 -1.715400000 2
15 9 11 12 9 0.0 -1.213400000 3
15 9 11 13 9 0.0 -1.882800000 2
15 9 11 13 9 0.0 -1.380700000 3
9 11 13 14 9 0.0 -2.719600000 1
9 11 13 14 9 0.0 -11.506000000 2
12 11 13 14 9 0.0 -17.614640000 2
12 11 13 14 9 0.0 -3.054320000 3
11 13 14 44 9 0.0 0.627600000 3
11 13 14 45 9 0.0 0.627600000 3
11 13 14 46 9 0.0 0.627600000 3
8 9 15 16 9 0.0 1.882800000 1
8 9 15 47 9 0.0 0.418400000 3
8 9 15 48 9 0.0 0.418400000 3
10 9 15 16 9 0.0 1.882800000 1
10 9 15 47 9 0.0 0.418400000 3
10 9 15 48 9 0.0 0.418400000 3
11 9 15 47 9 0.0 -0.125520000 3
11 9 15 48 9 0.0 -0.125520000 3
9 15 16 17 9 0.0 1.882800000 1
9 15 16 22 9 0.0 1.882800000 1
47 15 16 17 9 0.0 0.418400000 3
47 15 16 18 9 0.0 -0.125520000 3
47 15 16 22 9 0.0 0.418400000 3
48 15 16 17 9 0.0 0.418400000 3
48 15 16 18 9 0.0 -0.125520000 3
48 15 16 22 9 0.0 0.418400000 3
15 16 17 49 9 0.0 0.418400000 3
15 16 17 50 9 0.0 0.418400000 3
15 16 17 51 9 0.0 0.418400000 3
18 16 17 49 9 0.0 -0.125520000 3
18 16 17 50 9 0.0 -0.125520000 3
18 16 17 51 9 0.0 -0.125520000 3
22 16 17 49 9 0.0 0.418400000 3
22 16 17 50 9 0.0 0.418400000 3
22 16 17 51 9 0.0 0.418400000 3
15 16 18 19 9 0.0 -1.715400000 2
15 16 18 19 9 0.0 -1.213400000 3
15 16 18 20 9 0.0 -1.882800000 2
15 16 18 20 9 0.0 -1.380700000 3
17 16 18 19 9 0.0 -1.715400000 2
17 16 18 19 9 0.0 -1.213400000 3
17 16 18 20 9 0.0 -1.882800000 2
17 16 18 20 9 0.0 -1.380700000 3
22 16 18 19 9 0.0 -1.715400000 2
22 16 18 19 9 0.0 -1.213400000 3
22 16 18 20 9 0.0 -1.882800000 2
22 16 18 20 9 0.0 -1.380700000 3
16 18 20 21 9 0.0 -2.719600000 1
16 18 20 21 9 0.0 -11.506000000 2
19 18 20 21 9 0.0 -17.614640000 2
19 18 20 21 9 0.0 -3.054320000 3
18 20 21 52 9 0.0 0.627600000 3
18 20 21 53 9 0.0 0.627600000 3
18 20 21 54 9 0.0 0.627600000 3
15 16 22 23 9 0.0 1.882800000 1
15 16 22 55 9 0.0 0.418400000 3
15 16 22 56 9 0.0 0.418400000 3
17 16 22 23 9 0.0 1.882800000 1
17 16 22 55 9 0.0 0.418400000 3
17 16 22 56 9 0.0 0.418400000 3
18 16 22 55 9 0.0 -0.125520000 3
18 16 22 56 9 0.0 -0.125520000 3
16 22 23 24 9 0.0 1.882800000 1
16 22 23 29 9 0.0 1.882800000 1
55 22 23 24 9 0.0 0.418400000 3
55 22 23 25 9 0.0 -0.125520000 3
55 22 23 29 9 0.0 0.418400000 3
56 22 23 24 9 0.0 0.418400000 3
56 22 23 25 9 0.0 -0.125520000 3
56 22 23 29 9 0.0 0.418400000 3
22 23 24 57 9 0.0 0.418400000 3
22 23 24 58 9 0.0 0.418400000 3
22 23 24 59 9 0.0 0.418400000 3
25 23 24 57 9 0.0 -0.125520000 3
25 23 24 58 9 0.0 -0.125520000 3
25 23 24 59 9 0.0 -0.125520000 3
29 23 24 57 9 0.0 0.418400000 3
29 23 24 58 9 0.0 0.418400000 3
29 23 24 59 9 0.0 0.418400000 3
22 23 25 26 9 0.0 -1.715400000 2
22 23 25 26 9 0.0 -1.213400000 3
22 23 25 27 9 0.0 -1.882800000 2
22 23 25 27 9 0.0 -1.380700000 3
24 23 25 26 9 0.0 -1.715400000 2
24 23 25 26 9 0.0 -1.213400000 3
24 23 25 27 9 0.0 -1.882800000 2
24 23 25 27 9 0.0 -1.380700000 3
29 23 25 26 9 0.0 -1.715400000 2
29 23 25 26 9 0.0 -1.213400000 3
29 23 25 27 9 0.0 -1.882800000 2
29 23 25 27 9 0.0 -1.380700000 3
23 25 27 28 9 0.0 -2.719600000 1
23 25 27 28 9 0.0 -11.506000000 2
26 25 27 28 9 0.0 -17.614640000 2
26 25 27 28 9 0.0 -3.054320000 3
25 27 28 60 9 0.0 0.627600000 3
25 27 28 61 9 0.0 0.627600000 3
25 27 28 62 9 0.0 0.627600000 3
22 23 29 63 9 0.0 0.418400000 3
22 23 29 64 9 0.0 0.418400000 3
22 23 29 65 9 0.0 0.418400000 3
24 23 29 63 9 0.0 0.418400000 3
24 23 29 64 9 0.0 0.418400000 3
24 23 29 65 9 0.0 0.418400000 3
25 23 29 63 9 0.0 -0.125520000 3
25 23 29 64 9 0.0 -0.125520000 3
25 23 29 65 9 0.0 -0.125520000 3

[ moleculetype ]
; Name            nrexcl
THF          3

[ atoms ]
;   nr       type  resnr residue  atom   cgnr    charge       mass  typeB    chargeB      massB
; residue    1 THF rtp THF q -0.0
    1         c5      1    THF     C1      1 -0.10640000  12.010000   ; qtot -0.106400
    2         c5      1    THF     C2      2 -0.10640000  12.010000   ; qtot -0.212800
    3         c5      1    THF     C3      3 0.12740000  12.010000   ; qtot -0.085400
    4         os      1    THF     O1      4 -0.42760000  16.000000   ; qtot -0.513000
    5         c5      1    THF     C4      5 0.12740000  12.010000   ; qtot -0.385600
    6         hc      1    THF     H1      6 0.05170000   1.008000   ; qtot -0.333900
    7         hc      1    THF     H2      7 0.05170000   1.008000   ; qtot -0.282200
    8         hc      1    THF     H3      8 0.05170000   1.008000   ; qtot -0.230500
    9         hc      1    THF     H4      9 0.05170000   1.008000   ; qtot -0.178800
   10         h1      1    THF     H5     10 0.04470000   1.008000   ; qtot -0.134100
   11         h1      1    THF     H6     11 0.04470000   1.008000   ; qtot -0.089400
   12         h1      1    THF     H7     12 0.04470000   1.008000   ; qtot -0.044700
   13         h1      1    THF     H8     13 0.04470000   1.008000   ; qtot -0.000000

[ bonds ]
;    ai     aj funct         c0         c1         c2         c3
      1      2     1   0.15483 184179.680000
      1      5     1   0.15483 184179.680000
      2      3     1   0.15483 184179.680000
      3      4     1   0.14346 230630.448000
      4      5     1   0.14346 230630.448000
      1      6     1   0.10954 289892.624000
      1      7     1   0.10954 289892.624000
      2      8     1   0.10954 289892.624000
      2      9     1   0.10954 289892.624000
      3     10     1   0.10972 287675.104000
      3     11     1   0.10972 287675.104000
      5     12     1   0.10972 287675.104000
      5     13     1   0.10972 287675.104000

[ pairs ]
;    ai     aj funct         c0         c1         c2         c3
      1     10     1
      1     11     1
      2     12     1
      2     13     1
      6      3     1
      7      3     1
      3     12     1
      3     13     1
      4      8     1
      4      9     1
      6      4     1
      7      4     1
      5     10     1
      5     11     1
      5      8     1
      5      9     1
      6      8     1
      6      9     1
      6     12     1
      6     13     1
      7      8     1
      7      9     1
      7     12     1
      7     13     1
      8     10     1
      8     11     1
      9     10     1
      9     11     1

[ angles ]
;    ai     aj     ak funct         c0         c1         c2         c3
      1      2      3     1   103.8300446 517.477120
      1      5      4     1   106.1400454 647.934240
      2      1      5     1   103.8300446 517.477120
      2      3      4     1   106.1400454 647.934240
      3      4      5     1   109.2600469 749.856480
      1      2      8     1   111.1700476 356.895200
      1      2      9     1   111.1700476 356.895200
      1      5     12     1   111.1700476 356.895200
      1      5     13     1   111.1700476 356.895200
      2      1      6     1   111.1700476 356.895200
      2      1      7     1   111.1700476 356.895200
      2      3     10     1   111.1700476 356.895200
      2      3     11     1   111.1700476 356.895200
      3      2      8     1   111.1700476 356.895200
      3      2      9     1   111.1700476 356.895200
      4      3     10     1   108.4600466 472.289920
      4      3     11     1   108.4600466 472.289920
      4      5     12     1   108.4600466 472.289920
      4      5     13     1   108.4600466 472.289920
      5      1      6     1   111.1700476 356.895200
      5      1      7     1   111.1700476 356.895200
      6      1      7     1   107.2200462 300.494880
      8      2      9     1   107.2200462 300.494880
     10      3     11     1   108.1300464 298.737600
     12      5     13     1   108.1300464 298.737600

[ dihedrals ]
;    ai     aj     ak     al funct         c0         c1         c2         c3         c4         c5
      1      2      3      4     1  0.0000000  0.6508444  3
      1      5      4      3     1  180.0000771  3.6819200  1
      1      5      4      3     1  0.0000000  0.3347200  2
      1      5      4      3     1  0.0000000  3.1380000  3
      2      1      5      4     1  0.0000000  0.6508444  3
      2      3      4      5     1  180.0000771  3.6819200  1
      2      3      4      5     1  0.0000000  0.3347200  2
      2      3      4      5     1  0.0000000  3.1380000  3
      5      1      2      3     1  0.0000000  2.1756800  3
      1      2      3     10     1  0.0000000  0.6508444  3
      1      2      3     11     1  0.0000000  0.6508444  3
      2      1      5     12     1  0.0000000  0.6508444  3
      2      1      5     13     1  0.0000000  0.6508444  3
      6      1      2      3     1  0.0000000  0.5439200  3
      7      1      2      3     1  0.0000000  0.5439200  3
      3      4      5     12     1  0.0000000  1.4100080  3
      3      4      5     13     1  0.0000000  1.4100080  3
      4      3      2      8     1  0.0000000  1.0460000  1
      4      3      2      8     1  0.0000000  0.0000000  3
      4      3      2      9     1  0.0000000  1.0460000  1
      4      3      2      9     1  0.0000000  0.0000000  3
      6      1      5      4     1  0.0000000  1.0460000  1
      6      1      5      4     1  0.0000000  0.0000000  3
      7      1      5      4     1  0.0000000  1.0460000  1
      7      1      5      4     1  0.0000000  0.0000000  3
      5      4      3     10     1  0.0000000  1.4100080  3
      5      4      3     11     1  0.0000000  1.4100080  3
      5      1      2      8     1  0.0000000  0.5439200  3
      5      1      2      9     1  0.0000000  0.5439200  3
      6      1      2      8     1  0.0000000  0.5020800  3
      6      1      2      9     1  0.0000000  0.5020800  3
      6      1      5     12     1  0.0000000  0.6508444  3
      6      1      5     13     1  0.0000000  0.6508444  3
      7      1      2      8     1  0.0000000  0.5020800  3
      7      1      2      9     1  0.0000000  0.5020800  3
      7      1      5     12     1  0.0000000  0.6508444  3
      7      1      5     13     1  0.0000000  0.6508444  3
      8      2      3     10     1  0.0000000  0.6508444  3
      8      2      3     11     1  0.0000000  0.6508444  3
      9      2      3     10     1  0.0000000  0.6508444  3
      9      2      3     11     1  0.0000000  0.6508444  3


[ system ]
THF comparator n4
[ molecules ]
GRAPHENE 1
PMMA 1
THF 289
