%VERSION  VERSION_STAMP = V0001.000  DATE = 10/06/26  05:55:18                  
%FLAG TITLE                                                                     
%FORMAT(20a4)                                                                   
ANI                                                                             
%FLAG POINTERS                                                                  
%FORMAT(10I8)                                                                   
      16       5       8       8      16       9      24      11       0       0
      69       1       8       9      11       5       6       5       5       0
       0       0       0       0       0       0       0       0      16       0
       0
%FLAG ATOM_NAME                                                                 
%FORMAT(20a4)                                                                   
C1  O1  C2  C3  C4  C5  C6  C7  H1  H2  H3  H4  H5  H6  H7  H8  
%FLAG CHARGE                                                                    
%FORMAT(5E16.8)                                                                 
  2.07415330E+00 -5.99103668E+00  2.24544292E+00 -3.27773621E+00 -1.78350761E+00
 -3.00440171E+00 -1.78350761E+00 -3.27773621E+00  7.98592298E-01  7.98592298E-01
  7.98592298E-01  2.58984439E+00  2.40762139E+00  2.40762139E+00  2.40762139E+00
  2.58984439E+00
%FLAG ATOMIC_NUMBER                                                             
%FORMAT(10I8)                                                                   
       6       8       6       6       6       6       6       6       1       1
       1       1       1       1       1       1
%FLAG MASS                                                                      
%FORMAT(5E16.8)                                                                 
  1.20100000E+01  1.60000000E+01  1.20100000E+01  1.20100000E+01  1.20100000E+01
  1.20100000E+01  1.20100000E+01  1.20100000E+01  1.00800000E+00  1.00800000E+00
  1.00800000E+00  1.00800000E+00  1.00800000E+00  1.00800000E+00  1.00800000E+00
  1.00800000E+00
%FLAG ATOM_TYPE_INDEX                                                           
%FORMAT(10I8)                                                                   
       1       2       3       3       3       3       3       3       4       4
       4       5       5       5       5       5
%FLAG NUMBER_EXCLUDED_ATOMS                                                     
%FORMAT(10I8)                                                                   
       7      10      12       8       7       7       5       4       2       1
       1       1       1       1       1       1
%FLAG NONBONDED_PARM_INDEX                                                      
%FORMAT(10I8)                                                                   
       1       2       4       7      11       2       3       5       8      12
       4       5       6       9      13       7       8       9      10      14
      11      12      13      14      15
%FLAG RESIDUE_LABEL                                                             
%FORMAT(20a4)                                                                   
ANI 
%FLAG RESIDUE_POINTER                                                           
%FORMAT(10I8)                                                                   
       1
%FLAG BOND_FORCE_CONSTANT                                                       
%FORMAT(5E16.8)                                                                 
  2.82270000E+02  3.44220000E+02  3.43340000E+02  3.54250000E+02  3.60690000E+02
%FLAG BOND_EQUIL_VALUE                                                          
%FORMAT(5E16.8)                                                                 
  1.42730000E+00  1.09690000E+00  1.36880000E+00  1.39860000E+00  1.08600000E+00
%FLAG ANGLE_FORCE_CONSTANT                                                      
%FORMAT(5E16.8)                                                                 
  8.82600000E+01  5.62000000E+01  7.90000000E+01  6.36700000E+01  4.49000000E+01
  3.56400000E+01
%FLAG ANGLE_EQUIL_VALUE                                                         
%FORMAT(5E16.8)                                                                 
  2.06629619E+00  1.92579712E+00  2.07886256E+00  2.09474507E+00  2.09230160E+00
  1.89455572E+00
%FLAG DIHEDRAL_FORCE_CONSTANT                                                   
%FORMAT(5E16.8)                                                                 
  1.66000000E+00  3.62500000E+00  3.83333333E-01  1.05000000E+01  1.10000000E+00
%FLAG DIHEDRAL_PERIODICITY                                                      
%FORMAT(5E16.8)                                                                 
  2.00000000E+00  2.00000000E+00  3.00000000E+00  2.00000000E+00  2.00000000E+00
%FLAG DIHEDRAL_PHASE                                                            
%FORMAT(5E16.8)                                                                 
  3.14159400E+00  3.14159400E+00  0.00000000E+00  3.14159400E+00  3.14159400E+00
%FLAG SCEE_SCALE_FACTOR                                                         
%FORMAT(5E16.8)                                                                 
  1.20000000E+00  1.20000000E+00  1.20000000E+00  0.00000000E+00  0.00000000E+00
%FLAG SCNB_SCALE_FACTOR                                                         
%FORMAT(5E16.8)                                                                 
  2.00000000E+00  2.00000000E+00  2.00000000E+00  0.00000000E+00  0.00000000E+00
%FLAG SOLTY                                                                     
%FORMAT(5E16.8)                                                                 
  0.00000000E+00  0.00000000E+00  0.00000000E+00  0.00000000E+00  0.00000000E+00
%FLAG LENNARD_JONES_ACOEF                                                       
%FORMAT(5E16.8)                                                                 
  1.02073671E+06  5.42502534E+05  2.83662575E+05  8.43969952E+05  4.46121722E+05
  6.96551276E+05  6.97998263E+04  3.44374471E+04  5.63013422E+04  3.39005767E+03
  9.27554496E+04  4.65732396E+04  7.52549148E+04  4.88692384E+03  6.90855956E+03
%FLAG LENNARD_JONES_BCOEF                                                       
%FORMAT(5E16.8)                                                                 
  6.63431737E+02  4.38146883E+02  2.87011518E+02  5.90251928E+02  3.88758656E+02
  5.24668528E+02  1.14981426E+02  7.31636661E+01  1.01040256E+02  1.67944276E+01
  1.24325688E+02  7.98066064E+01  1.09570372E+02  1.89134207E+01  2.10929191E+01
%FLAG BONDS_INC_HYDROGEN                                                        
%FORMAT(10I8)                                                                   
       0      24       2       0      27       2       0      30       2       9
      33       5      12      36       5      15      39       5      18      42
       5      21      45       5
%FLAG BONDS_WITHOUT_HYDROGEN                                                    
%FORMAT(10I8)                                                                   
       0       3       1       3       6       3       6       9       4       6
      21       4       9      12       4      12      15       4      15      18
       4      18      21       4
%FLAG ANGLES_INC_HYDROGEN                                                       
%FORMAT(10I8)                                                                   
       3       0      24       2       3       0      27       2       3       0
      30       2       6       9      33       5       6      21      45       5
       9      12      36       5      12       9      33       5      12      15
      39       5      15      12      36       5      15      18      42       5
      18      15      39       5      18      21      45       5      21      18
      42       5      24       0      27       6      24       0      30       6
      27       0      30       6
%FLAG ANGLES_WITHOUT_HYDROGEN                                                   
%FORMAT(10I8)                                                                   
       0       3       6       1       3       6       9       3       3       6
      21       3       6       9      12       4       6      21      18       4
       9       6      21       4       9      12      15       4      12      15
      18       4      15      18      21       4
%FLAG DIHEDRALS_INC_HYDROGEN                                                    
%FORMAT(10I8)                                                                   
       3       6       9      33       2       3       6      21      45       2
      24       0       3       6       3      27       0       3       6       3
      30       0       3       6       3       6       9      12      36       2
       6      21      18      42       2       9       6      21      45       2
       9      12      15      39       2      12      15      18      42       2
      15      12       9      33       2      15      18      21      45       2
      18      15      12      36       2      21      18      15      39       2
      21       6       9      33       2      33       9      12      36       2
      36      12      15      39       2      39      15      18      42       2
      42      18      21      45       2       6      12      -9     -33       5
       9      15     -12     -36       5      12      18     -15     -39       5
      15      21     -18     -42       5       6      18     -21     -45       5
%FLAG DIHEDRALS_WITHOUT_HYDROGEN                                                
%FORMAT(10I8)                                                                   
       0       3       6       9       1       0       3       6      21       1
       3       6       9      12       2       3       6      21      18       2
       6       9      12      15       2       6      21     -18      15       2
       9       6      21      18       2       9      12     -15      18       2
      12       9       6      21       2      12      15     -18      21       2
       9      21      -6      -3       4
%FLAG EXCLUDED_ATOMS_LIST                                                       
%FORMAT(10I8)                                                                   
       2       3       4       8       9      10      11       3       4       5
       7       8       9      10      11      12      16       4       5       6
       7       8       9      10      11      12      13      15      16       5
       6       7       8      12      13      14      16       6       7       8
      12      13      14      15       7       8      12      13      14      15
      16       8      13      14      15      16      12      14      15      16
      10      11      11       0      13      14      15      16       0
%FLAG HBOND_ACOEF                                                               
%FORMAT(5E16.8)                                                                 

%FLAG HBOND_BCOEF                                                               
%FORMAT(5E16.8)                                                                 

%FLAG HBCUT                                                                     
%FORMAT(5E16.8)                                                                 

%FLAG AMBER_ATOM_TYPE                                                           
%FORMAT(20a4)                                                                   
c3  os  ca  ca  ca  ca  ca  ca  h1  h1  h1  ha  ha  ha  ha  ha  
%FLAG TREE_CHAIN_CLASSIFICATION                                                 
%FORMAT(20a4)                                                                   
BLA BLA BLA BLA BLA BLA BLA BLA BLA BLA BLA BLA BLA BLA BLA BLA 
%FLAG JOIN_ARRAY                                                                
%FORMAT(10I8)                                                                   
       0       0       0       0       0       0       0       0       0       0
       0       0       0       0       0       0
%FLAG IROTAT                                                                    
%FORMAT(10I8)                                                                   
       0       0       0       0       0       0       0       0       0       0
       0       0       0       0       0       0
%FLAG RADIUS_SET                                                                
%FORMAT(1a80)                                                                   
modified Bondi radii (mbondi)                                                   
%FLAG RADII                                                                     
%FORMAT(5E16.8)                                                                 
  1.70000000E+00  1.50000000E+00  1.70000000E+00  1.70000000E+00  1.70000000E+00
  1.70000000E+00  1.70000000E+00  1.70000000E+00  1.30000000E+00  1.30000000E+00
  1.30000000E+00  1.30000000E+00  1.30000000E+00  1.30000000E+00  1.30000000E+00
  1.30000000E+00
%FLAG SCREEN                                                                    
%FORMAT(5E16.8)                                                                 
  7.20000000E-01  8.50000000E-01  7.20000000E-01  7.20000000E-01  7.20000000E-01
  7.20000000E-01  7.20000000E-01  7.20000000E-01  8.50000000E-01  8.50000000E-01
  8.50000000E-01  8.50000000E-01  8.50000000E-01  8.50000000E-01  8.50000000E-01
  8.50000000E-01
%FLAG IPOL                                                                      
%FORMAT(1I8)                                                                    
       0
