ANI
    16
   2.6830000  -0.2390000   0.2090000   1.7050000   0.7890000   0.1280000
   0.3960000   0.3940000   0.0950000  -0.0670000  -0.9220000   0.1330000
  -1.4400000  -1.1850000   0.0920000  -2.3550000  -0.1360000   0.0130000
  -1.8980000   1.1790000  -0.0260000  -0.5280000   1.4400000   0.0150000
   2.6450000  -0.8910000  -0.6700000   3.6680000   0.2370000   0.2260000
   2.5760000  -0.8150000   1.1340000   0.6120000  -1.7660000   0.1950000
  -1.7960000  -2.2120000   0.1220000  -3.4210000  -0.3440000  -0.0190000
  -2.6060000   2.0010000  -0.0880000  -0.1740000   2.4680000  -0.0150000
