GROningen MAchine for Chemical Simulation
   16
    1ANI     C1    1   0.268  -0.024   0.021
    1ANI     O1    2   0.171   0.079   0.013
    1ANI     C2    3   0.040   0.039   0.009
    1ANI     C3    4  -0.007  -0.092   0.013
    1ANI     C4    5  -0.144  -0.119   0.009
    1ANI     C5    6  -0.235  -0.014   0.001
    1ANI     C6    7  -0.190   0.118  -0.003
    1ANI     C7    8  -0.053   0.144   0.002
    1ANI     H1    9   0.265  -0.089  -0.067
    1ANI     H2   10   0.367   0.024   0.023
    1ANI     H3   11   0.258  -0.081   0.113
    1ANI     H4   12   0.061  -0.177   0.019
    1ANI     H5   13  -0.180  -0.221   0.012
    1ANI     H6   14  -0.342  -0.034  -0.002
    1ANI     H7   15  -0.261   0.200  -0.009
    1ANI     H8   16  -0.017   0.247  -0.002
   1.20890   0.96800   0.68040
