;
;   File molecule.top  was generated
;   By user: mattiaapicella (501)
;   On host:Mattias-MacBook-Pro.local 
;   At date:Tue. October  2 05:55:21 2026 
;
;   This is a standalone topology file
;
;   Created by:
;   ParmEd:       -c, VERSION4.3.1 
;   Executable:   -c
;   Library dir:  /usr/local/gromacs/share/gromacs/top
;   Command line:
;     -c
;

[ defaults ]
; nbfunc        comb-rule       gen-pairs       fudgeLJ fudgeQQ
1               2               yes             0.5          0.83333333  

[ atomtypes ]
; name    at.num    mass    charge ptype  sigma      epsilon
c3             6  12.010000  0.00000000  A     0.33977095      0.4510352
os             8  16.000000  0.00000000  A     0.31560978      0.3037584
ca             6  12.010000  0.00000000  A     0.33152123      0.4133792
h1             1   1.008000  0.00000000  A     0.24219973      0.0870272
ha             1   1.008000  0.00000000  A     0.26254785      0.0673624


[ moleculetype ]
; Name            nrexcl
ANI          3

[ atoms ]
;   nr       type  resnr residue  atom   cgnr    charge       mass  typeB    chargeB      massB
; residue    1 ANI rtp ANI q 0.0
    1         c3      1    ANI     C1      1 0.11382500  12.010000   ; qtot 0.113825
    2         os      1    ANI     O1      2 -0.32877500  16.000000   ; qtot -0.214950
    3         ca      1    ANI     C2      3 0.12322500  12.010000   ; qtot -0.091725
    4         ca      1    ANI     C3      4 -0.17987500  12.010000   ; qtot -0.271600
    5         ca      1    ANI     C4      5 -0.09787500  12.010000   ; qtot -0.369475
    6         ca      1    ANI     C5      6 -0.16487500  12.010000   ; qtot -0.534350
    7         ca      1    ANI     C6      7 -0.09787500  12.010000   ; qtot -0.632225
    8         ca      1    ANI     C7      8 -0.17987500  12.010000   ; qtot -0.812100
    9         h1      1    ANI     H1      9 0.04382500   1.008000   ; qtot -0.768275
   10         h1      1    ANI     H2     10 0.04382500   1.008000   ; qtot -0.724450
   11         h1      1    ANI     H3     11 0.04382500   1.008000   ; qtot -0.680625
   12         ha      1    ANI     H4     12 0.14212500   1.008000   ; qtot -0.538500
   13         ha      1    ANI     H5     13 0.13212500   1.008000   ; qtot -0.406375
   14         ha      1    ANI     H6     14 0.13212500   1.008000   ; qtot -0.274250
   15         ha      1    ANI     H7     15 0.13212500   1.008000   ; qtot -0.142125
   16         ha      1    ANI     H8     16 0.14212500   1.008000   ; qtot 0.000000

[ bonds ]
;    ai     aj funct         c0         c1         c2         c3
      1      2     1   0.14273 236203.536000
      2      3     1   0.13688 287306.912000
      3      4     1   0.13986 296436.400000
      3      8     1   0.13986 296436.400000
      4      5     1   0.13986 296436.400000
      5      6     1   0.13986 296436.400000
      6      7     1   0.13986 296436.400000
      7      8     1   0.13986 296436.400000
      1      9     1   0.10969 288043.296000
      1     10     1   0.10969 288043.296000
      1     11     1   0.10969 288043.296000
      4     12     1   0.10860 301825.392000
      5     13     1   0.10860 301825.392000
      6     14     1   0.10860 301825.392000
      7     15     1   0.10860 301825.392000
      8     16     1   0.10860 301825.392000

[ pairs ]
;    ai     aj funct         c0         c1         c2         c3
      1      4     1
      1      8     1
      2      5     1
      2      7     1
      3      6     1
      4      7     1
      5      8     1
      2     12     1
      2     16     1
      9      3     1
     10      3     1
     11      3     1
      3     13     1
      3     15     1
      4     16     1
      4     14     1
      5     15     1
      6     12     1
      6     16     1
      7     13     1
      8     14     1
      8     12     1
     12     13     1
     13     14     1
     14     15     1
     15     16     1

[ angles ]
;    ai     aj     ak funct         c0         c1         c2         c3
      1      2      3     1   118.3900509 738.559680
      2      3      4     1   119.1100509 661.072000
      2      3      8     1   119.1100509 661.072000
      3      4      5     1   120.0200517 532.790560
      3      8      7     1   120.0200517 532.790560
      4      3      8     1   120.0200517 532.790560
      4      5      6     1   120.0200517 532.790560
      5      6      7     1   120.0200517 532.790560
      6      7      8     1   120.0200517 532.790560
      2      1      9     1   110.3400472 470.281600
      2      1     10     1   110.3400472 470.281600
      2      1     11     1   110.3400472 470.281600
      3      4     12     1   119.8800511 375.723200
      3      8     16     1   119.8800511 375.723200
      4      5     13     1   119.8800511 375.723200
      5      4     12     1   119.8800511 375.723200
      5      6     14     1   119.8800511 375.723200
      6      5     13     1   119.8800511 375.723200
      6      7     15     1   119.8800511 375.723200
      7      6     14     1   119.8800511 375.723200
      7      8     16     1   119.8800511 375.723200
      8      7     15     1   119.8800511 375.723200
      9      1     10     1   108.5500468 298.235520
      9      1     11     1   108.5500468 298.235520
     10      1     11     1   108.5500468 298.235520

[ dihedrals ]
;    ai     aj     ak     al funct         c0         c1         c2         c3         c4         c5
      1      2      3      4     1  180.0000771  6.9454400  2
      1      2      3      8     1  180.0000771  6.9454400  2
      2      3      4      5     1  180.0000771  15.1670000  2
      2      3      8      7     1  180.0000771  15.1670000  2
      3      4      5      6     1  180.0000771  15.1670000  2
      3      8      7      6     1  180.0000771  15.1670000  2
      4      3      8      7     1  180.0000771  15.1670000  2
      4      5      6      7     1  180.0000771  15.1670000  2
      5      4      3      8     1  180.0000771  15.1670000  2
      5      6      7      8     1  180.0000771  15.1670000  2
      4      8      3      2     4  180.0000771  43.9320000  2
      2      3      4     12     1  180.0000771  15.1670000  2
      2      3      8     16     1  180.0000771  15.1670000  2
      9      1      2      3     1  0.0000000  1.6038667  3
     10      1      2      3     1  0.0000000  1.6038667  3
     11      1      2      3     1  0.0000000  1.6038667  3
      3      4      5     13     1  180.0000771  15.1670000  2
      3      8      7     15     1  180.0000771  15.1670000  2
      4      3      8     16     1  180.0000771  15.1670000  2
      4      5      6     14     1  180.0000771  15.1670000  2
      5      6      7     15     1  180.0000771  15.1670000  2
      6      5      4     12     1  180.0000771  15.1670000  2
      6      7      8     16     1  180.0000771  15.1670000  2
      7      6      5     13     1  180.0000771  15.1670000  2
      8      7      6     14     1  180.0000771  15.1670000  2
      8      3      4     12     1  180.0000771  15.1670000  2
     12      4      5     13     1  180.0000771  15.1670000  2
     13      5      6     14     1  180.0000771  15.1670000  2
     14      6      7     15     1  180.0000771  15.1670000  2
     15      7      8     16     1  180.0000771  15.1670000  2
      3      5      4     12     4  180.0000771  4.6024000  2
      4      6      5     13     4  180.0000771  4.6024000  2
      5      7      6     14     4  180.0000771  4.6024000  2
      6      8      7     15     4  180.0000771  4.6024000  2
      3      7      8     16     4  180.0000771  4.6024000  2

[ system ]
; Name
Generic title

[ molecules ]
; Compound       #mols
ANI                  1
