Anisole comparator n4
 3969
    1GR      C1    1   0.000   0.000   1.900  0.0000  0.0000  0.0000
    1GR      C2    2   0.142   0.000   1.900  0.0000  0.0000  0.0000
    1GR      C3    3   0.213   0.123   1.900  0.0000  0.0000  0.0000
    1GR      C4    4   0.354   0.123   1.900  0.0000  0.0000  0.0000
    1GR      C5    5   0.000   0.246   1.900  0.0000  0.0000  0.0000
    1GR      C6    6   0.142   0.246   1.900  0.0000  0.0000  0.0000
    1GR      C7    7   0.213   0.368   1.900  0.0000  0.0000  0.0000
    1GR      C8    8   0.354   0.368   1.900  0.0000  0.0000  0.0000
    1GR      C9    9   0.000   0.491   1.900  0.0000  0.0000  0.0000
    1GR     C10   10   0.142   0.491   1.900  0.0000  0.0000  0.0000
    1GR     C11   11   0.213   0.614   1.900  0.0000  0.0000  0.0000
    1GR     C12   12   0.354   0.614   1.900  0.0000  0.0000  0.0000
    1GR     C13   13   0.000   0.737   1.900  0.0000  0.0000  0.0000
    1GR     C14   14   0.142   0.737   1.900  0.0000  0.0000  0.0000
    1GR     C15   15   0.213   0.860   1.900  0.0000  0.0000  0.0000
    1GR     C16   16   0.354   0.860   1.900  0.0000  0.0000  0.0000
    1GR     C17   17   0.000   0.982   1.900  0.0000  0.0000  0.0000
    1GR     C18   18   0.142   0.982   1.900  0.0000  0.0000  0.0000
    1GR     C19   19   0.213   1.105   1.900  0.0000  0.0000  0.0000
    1GR     C20   20   0.354   1.105   1.900  0.0000  0.0000  0.0000
    1GR     C21   21   0.000   1.228   1.900  0.0000  0.0000  0.0000
    1GR     C22   22   0.142   1.228   1.900  0.0000  0.0000  0.0000
    1GR     C23   23   0.213   1.351   1.900  0.0000  0.0000  0.0000
    1GR     C24   24   0.354   1.351   1.900  0.0000  0.0000  0.0000
    1GR     C25   25   0.000   1.474   1.900  0.0000  0.0000  0.0000
    1GR     C26   26   0.142   1.474   1.900  0.0000  0.0000  0.0000
    1GR     C27   27   0.213   1.596   1.900  0.0000  0.0000  0.0000
    1GR     C28   28   0.354   1.596   1.900  0.0000  0.0000  0.0000
    1GR     C29   29   0.000   1.719   1.900  0.0000  0.0000  0.0000
    1GR     C30   30   0.142   1.719   1.900  0.0000  0.0000  0.0000
    1GR     C31   31   0.213   1.842   1.900  0.0000  0.0000  0.0000
    1GR     C32   32   0.354   1.842   1.900  0.0000  0.0000  0.0000
    1GR     C33   33   0.000   1.965   1.900  0.0000  0.0000  0.0000
    1GR     C34   34   0.142   1.965   1.900  0.0000  0.0000  0.0000
    1GR     C35   35   0.213   2.088   1.900  0.0000  0.0000  0.0000
    1GR     C36   36   0.354   2.088   1.900  0.0000  0.0000  0.0000
    1GR     C37   37   0.000   2.210   1.900  0.0000  0.0000  0.0000
    1GR     C38   38   0.142   2.210   1.900  0.0000  0.0000  0.0000
    1GR     C39   39   0.213   2.333   1.900  0.0000  0.0000  0.0000
    1GR     C40   40   0.354   2.333   1.900  0.0000  0.0000  0.0000
    1GR     C41   41   0.000   2.456   1.900  0.0000  0.0000  0.0000
    1GR     C42   42   0.142   2.456   1.900  0.0000  0.0000  0.0000
    1GR     C43   43   0.213   2.579   1.900  0.0000  0.0000  0.0000
    1GR     C44   44   0.354   2.579   1.900  0.0000  0.0000  0.0000
    1GR     C45   45   0.000   2.702   1.900  0.0000  0.0000  0.0000
    1GR     C46   46   0.142   2.702   1.900  0.0000  0.0000  0.0000
    1GR     C47   47   0.213   2.824   1.900  0.0000  0.0000  0.0000
    1GR     C48   48   0.354   2.824   1.900  0.0000  0.0000  0.0000
    1GR     C49   49   0.000   2.947   1.900  0.0000  0.0000  0.0000
    1GR     C50   50   0.142   2.947   1.900  0.0000  0.0000  0.0000
    1GR     C51   51   0.213   3.070   1.900  0.0000  0.0000  0.0000
    1GR     C52   52   0.354   3.070   1.900  0.0000  0.0000  0.0000
    1GR     C53   53   0.000   3.193   1.900  0.0000  0.0000  0.0000
    1GR     C54   54   0.142   3.193   1.900  0.0000  0.0000  0.0000
    1GR     C55   55   0.213   3.316   1.900  0.0000  0.0000  0.0000
    1GR     C56   56   0.354   3.316   1.900  0.0000  0.0000  0.0000
    1GR     C57   57   0.425   0.000   1.900  0.0000  0.0000  0.0000
    1GR     C58   58   0.567   0.000   1.900  0.0000  0.0000  0.0000
    1GR     C59   59   0.638   0.123   1.900  0.0000  0.0000  0.0000
    1GR     C60   60   0.780   0.123   1.900  0.0000  0.0000  0.0000
    1GR     C61   61   0.425   0.246   1.900  0.0000  0.0000  0.0000
    1GR     C62   62   0.567   0.246   1.900  0.0000  0.0000  0.0000
    1GR     C63   63   0.638   0.368   1.900  0.0000  0.0000  0.0000
    1GR     C64   64   0.780   0.368   1.900  0.0000  0.0000  0.0000
    1GR     C65   65   0.425   0.491   1.900  0.0000  0.0000  0.0000
    1GR     C66   66   0.567   0.491   1.900  0.0000  0.0000  0.0000
    1GR     C67   67   0.638   0.614   1.900  0.0000  0.0000  0.0000
    1GR     C68   68   0.780   0.614   1.900  0.0000  0.0000  0.0000
    1GR     C69   69   0.425   0.737   1.900  0.0000  0.0000  0.0000
    1GR     C70   70   0.567   0.737   1.900  0.0000  0.0000  0.0000
    1GR     C71   71   0.638   0.860   1.900  0.0000  0.0000  0.0000
    1GR     C72   72   0.780   0.860   1.900  0.0000  0.0000  0.0000
    1GR     C73   73   0.425   0.982   1.900  0.0000  0.0000  0.0000
    1GR     C74   74   0.567   0.982   1.900  0.0000  0.0000  0.0000
    1GR     C75   75   0.638   1.105   1.900  0.0000  0.0000  0.0000
    1GR     C76   76   0.780   1.105   1.900  0.0000  0.0000  0.0000
    1GR     C77   77   0.425   1.228   1.900  0.0000  0.0000  0.0000
    1GR     C78   78   0.567   1.228   1.900  0.0000  0.0000  0.0000
    1GR     C79   79   0.638   1.351   1.900  0.0000  0.0000  0.0000
    1GR     C80   80   0.780   1.351   1.900  0.0000  0.0000  0.0000
    1GR     C81   81   0.425   1.474   1.900  0.0000  0.0000  0.0000
    1GR     C82   82   0.567   1.474   1.900  0.0000  0.0000  0.0000
    1GR     C83   83   0.638   1.596   1.900  0.0000  0.0000  0.0000
    1GR     C84   84   0.780   1.596   1.900  0.0000  0.0000  0.0000
    1GR     C85   85   0.425   1.719   1.900  0.0000  0.0000  0.0000
    1GR     C86   86   0.567   1.719   1.900  0.0000  0.0000  0.0000
    1GR     C87   87   0.638   1.842   1.900  0.0000  0.0000  0.0000
    1GR     C88   88   0.780   1.842   1.900  0.0000  0.0000  0.0000
    1GR     C89   89   0.425   1.965   1.900  0.0000  0.0000  0.0000
    1GR     C90   90   0.567   1.965   1.900  0.0000  0.0000  0.0000
    1GR     C91   91   0.638   2.088   1.900  0.0000  0.0000  0.0000
    1GR     C92   92   0.780   2.088   1.900  0.0000  0.0000  0.0000
    1GR     C93   93   0.425   2.210   1.900  0.0000  0.0000  0.0000
    1GR     C94   94   0.567   2.210   1.900  0.0000  0.0000  0.0000
    1GR     C95   95   0.638   2.333   1.900  0.0000  0.0000  0.0000
    1GR     C96   96   0.780   2.333   1.900  0.0000  0.0000  0.0000
    1GR     C97   97   0.425   2.456   1.900  0.0000  0.0000  0.0000
    1GR     C98   98   0.567   2.456   1.900  0.0000  0.0000  0.0000
    1GR     C99   99   0.638   2.579   1.900  0.0000  0.0000  0.0000
    1GR    C100  100   0.780   2.579   1.900  0.0000  0.0000  0.0000
    1GR    C101  101   0.425   2.702   1.900  0.0000  0.0000  0.0000
    1GR    C102  102   0.567   2.702   1.900  0.0000  0.0000  0.0000
    1GR    C103  103   0.638   2.824   1.900  0.0000  0.0000  0.0000
    1GR    C104  104   0.780   2.824   1.900  0.0000  0.0000  0.0000
    1GR    C105  105   0.425   2.947   1.900  0.0000  0.0000  0.0000
    1GR    C106  106   0.567   2.947   1.900  0.0000  0.0000  0.0000
    1GR    C107  107   0.638   3.070   1.900  0.0000  0.0000  0.0000
    1GR    C108  108   0.780   3.070   1.900  0.0000  0.0000  0.0000
    1GR    C109  109   0.425   3.193   1.900  0.0000  0.0000  0.0000
    1GR    C110  110   0.567   3.193   1.900  0.0000  0.0000  0.0000
    1GR    C111  111   0.638   3.316   1.900  0.0000  0.0000  0.0000
    1GR    C112  112   0.780   3.316   1.900  0.0000  0.0000  0.0000
    1GR    C113  113   0.851   0.000   1.900  0.0000  0.0000  0.0000
    1GR    C114  114   0.993   0.000   1.900  0.0000  0.0000  0.0000
    1GR    C115  115   1.064   0.123   1.900  0.0000  0.0000  0.0000
    1GR    C116  116   1.205   0.123   1.900  0.0000  0.0000  0.0000
    1GR    C117  117   0.851   0.246   1.900  0.0000  0.0000  0.0000
    1GR    C118  118   0.993   0.246   1.900  0.0000  0.0000  0.0000
    1GR    C119  119   1.064   0.368   1.900  0.0000  0.0000  0.0000
    1GR    C120  120   1.205   0.368   1.900  0.0000  0.0000  0.0000
    1GR    C121  121   0.851   0.491   1.900  0.0000  0.0000  0.0000
    1GR    C122  122   0.993   0.491   1.900  0.0000  0.0000  0.0000
    1GR    C123  123   1.064   0.614   1.900  0.0000  0.0000  0.0000
    1GR    C124  124   1.205   0.614   1.900  0.0000  0.0000  0.0000
    1GR    C125  125   0.851   0.737   1.900  0.0000  0.0000  0.0000
    1GR    C126  126   0.993   0.737   1.900  0.0000  0.0000  0.0000
    1GR    C127  127   1.064   0.860   1.900  0.0000  0.0000  0.0000
    1GR    C128  128   1.205   0.860   1.900  0.0000  0.0000  0.0000
    1GR    C129  129   0.851   0.982   1.900  0.0000  0.0000  0.0000
    1GR    C130  130   0.993   0.982   1.900  0.0000  0.0000  0.0000
    1GR    C131  131   1.064   1.105   1.900  0.0000  0.0000  0.0000
    1GR    C132  132   1.205   1.105   1.900  0.0000  0.0000  0.0000
    1GR    C133  133   0.851   1.228   1.900  0.0000  0.0000  0.0000
    1GR    C134  134   0.993   1.228   1.900  0.0000  0.0000  0.0000
    1GR    C135  135   1.064   1.351   1.900  0.0000  0.0000  0.0000
    1GR    C136  136   1.205   1.351   1.900  0.0000  0.0000  0.0000
    1GR    C137  137   0.851   1.474   1.900  0.0000  0.0000  0.0000
    1GR    C138  138   0.993   1.474   1.900  0.0000  0.0000  0.0000
    1GR    C139  139   1.064   1.596   1.900  0.0000  0.0000  0.0000
    1GR    C140  140   1.205   1.596   1.900  0.0000  0.0000  0.0000
    1GR    C141  141   0.851   1.719   1.900  0.0000  0.0000  0.0000
    1GR    C142  142   0.993   1.719   1.900  0.0000  0.0000  0.0000
    1GR    C143  143   1.064   1.842   1.900  0.0000  0.0000  0.0000
    1GR    C144  144   1.205   1.842   1.900  0.0000  0.0000  0.0000
    1GR    C145  145   0.851   1.965   1.900  0.0000  0.0000  0.0000
    1GR    C146  146   0.993   1.965   1.900  0.0000  0.0000  0.0000
    1GR    C147  147   1.064   2.088   1.900  0.0000  0.0000  0.0000
    1GR    C148  148   1.205   2.088   1.900  0.0000  0.0000  0.0000
    1GR    C149  149   0.851   2.210   1.900  0.0000  0.0000  0.0000
    1GR    C150  150   0.993   2.210   1.900  0.0000  0.0000  0.0000
    1GR    C151  151   1.064   2.333   1.900  0.0000  0.0000  0.0000
    1GR    C152  152   1.205   2.333   1.900  0.0000  0.0000  0.0000
    1GR    C153  153   0.851   2.456   1.900  0.0000  0.0000  0.0000
    1GR    C154  154   0.993   2.456   1.900  0.0000  0.0000  0.0000
    1GR    C155  155   1.064   2.579   1.900  0.0000  0.0000  0.0000
    1GR    C156  156   1.205   2.579   1.900  0.0000  0.0000  0.0000
    1GR    C157  157   0.851   2.702   1.900  0.0000  0.0000  0.0000
    1GR    C158  158   0.993   2.702   1.900  0.0000  0.0000  0.0000
    1GR    C159  159   1.064   2.824   1.900  0.0000  0.0000  0.0000
    1GR    C160  160   1.205   2.824   1.900  0.0000  0.0000  0.0000
    1GR    C161  161   0.851   2.947   1.900  0.0000  0.0000  0.0000
    1GR    C162  162   0.993   2.947   1.900  0.0000  0.0000  0.0000
    1GR    C163  163   1.064   3.070   1.900  0.0000  0.0000  0.0000
    1GR    C164  164   1.205   3.070   1.900  0.0000  0.0000  0.0000
    1GR    C165  165   0.851   3.193   1.900  0.0000  0.0000  0.0000
    1GR    C166  166   0.993   3.193   1.900  0.0000  0.0000  0.0000
    1GR    C167  167   1.064   3.316   1.900  0.0000  0.0000  0.0000
    1GR    C168  168   1.205   3.316   1.900  0.0000  0.0000  0.0000
    1GR    C169  169   1.276   0.000   1.900  0.0000  0.0000  0.0000
    1GR    C170  170   1.418   3.438   1.900  0.0000  0.0000  0.0000
    1GR    C171  171   1.489   0.123   1.900  0.0000  0.0000  0.0000
    1GR    C172  172   1.631   0.123   1.900  0.0000  0.0000  0.0000
    1GR    C173  173   1.276   0.246   1.900  0.0000  0.0000  0.0000
    1GR    C174  174   1.418   0.246   1.900  0.0000  0.0000  0.0000
    1GR    C175  175   1.489   0.368   1.900  0.0000  0.0000  0.0000
    1GR    C176  176   1.631   0.368   1.900  0.0000  0.0000  0.0000
    1GR    C177  177   1.276   0.491   1.900  0.0000  0.0000  0.0000
    1GR    C178  178   1.418   0.491   1.900  0.0000  0.0000  0.0000
    1GR    C179  179   1.489   0.614   1.900  0.0000  0.0000  0.0000
    1GR    C180  180   1.631   0.614   1.900  0.0000  0.0000  0.0000
    1GR    C181  181   1.276   0.737   1.900  0.0000  0.0000  0.0000
    1GR    C182  182   1.418   0.737   1.900  0.0000  0.0000  0.0000
    1GR    C183  183   1.489   0.860   1.900  0.0000  0.0000  0.0000
    1GR    C184  184   1.631   0.860   1.900  0.0000  0.0000  0.0000
    1GR    C185  185   1.276   0.982   1.900  0.0000  0.0000  0.0000
    1GR    C186  186   1.418   0.982   1.900  0.0000  0.0000  0.0000
    1GR    C187  187   1.489   1.105   1.900  0.0000  0.0000  0.0000
    1GR    C188  188   1.631   1.105   1.900  0.0000  0.0000  0.0000
    1GR    C189  189   1.276   1.228   1.900  0.0000  0.0000  0.0000
    1GR    C190  190   1.418   1.228   1.900  0.0000  0.0000  0.0000
    1GR    C191  191   1.489   1.351   1.900  0.0000  0.0000  0.0000
    1GR    C192  192   1.631   1.351   1.900  0.0000  0.0000  0.0000
    1GR    C193  193   1.276   1.474   1.900  0.0000  0.0000  0.0000
    1GR    C194  194   1.418   1.474   1.900  0.0000  0.0000  0.0000
    1GR    C195  195   1.489   1.596   1.900  0.0000  0.0000  0.0000
    1GR    C196  196   1.631   1.596   1.900  0.0000  0.0000  0.0000
    1GR    C197  197   1.276   1.719   1.900  0.0000  0.0000  0.0000
    1GR    C198  198   1.418   1.719   1.900  0.0000  0.0000  0.0000
    1GR    C199  199   1.489   1.842   1.900  0.0000  0.0000  0.0000
    1GR    C200  200   1.631   1.842   1.900  0.0000  0.0000  0.0000
    1GR    C201  201   1.276   1.965   1.900  0.0000  0.0000  0.0000
    1GR    C202  202   1.418   1.965   1.900  0.0000  0.0000  0.0000
    1GR    C203  203   1.489   2.088   1.900  0.0000  0.0000  0.0000
    1GR    C204  204   1.631   2.088   1.900  0.0000  0.0000  0.0000
    1GR    C205  205   1.276   2.210   1.900  0.0000  0.0000  0.0000
    1GR    C206  206   1.418   2.210   1.900  0.0000  0.0000  0.0000
    1GR    C207  207   1.489   2.333   1.900  0.0000  0.0000  0.0000
    1GR    C208  208   1.631   2.333   1.900  0.0000  0.0000  0.0000
    1GR    C209  209   1.276   2.456   1.900  0.0000  0.0000  0.0000
    1GR    C210  210   1.418   2.456   1.900  0.0000  0.0000  0.0000
    1GR    C211  211   1.489   2.579   1.900  0.0000  0.0000  0.0000
    1GR    C212  212   1.631   2.579   1.900  0.0000  0.0000  0.0000
    1GR    C213  213   1.276   2.702   1.900  0.0000  0.0000  0.0000
    1GR    C214  214   1.418   2.702   1.900  0.0000  0.0000  0.0000
    1GR    C215  215   1.489   2.824   1.900  0.0000  0.0000  0.0000
    1GR    C216  216   1.631   2.824   1.900  0.0000  0.0000  0.0000
    1GR    C217  217   1.276   2.947   1.900  0.0000  0.0000  0.0000
    1GR    C218  218   1.418   2.947   1.900  0.0000  0.0000  0.0000
    1GR    C219  219   1.489   3.070   1.900  0.0000  0.0000  0.0000
    1GR    C220  220   1.631   3.070   1.900  0.0000  0.0000  0.0000
    1GR    C221  221   1.276   3.193   1.900  0.0000  0.0000  0.0000
    1GR    C222  222   1.418   3.193   1.900  0.0000  0.0000  0.0000
    1GR    C223  223   1.489   3.316   1.900  0.0000  0.0000  0.0000
    1GR    C224  224   1.631   3.316   1.900  0.0000  0.0000  0.0000
    1GR    C225  225   1.702   0.000   1.900  0.0000  0.0000  0.0000
    1GR    C226  226   1.843   0.000   1.900  0.0000  0.0000  0.0000
    1GR    C227  227   1.914   0.123   1.900  0.0000  0.0000  0.0000
    1GR    C228  228   2.056   0.123   1.900  0.0000  0.0000  0.0000
    1GR    C229  229   1.702   0.246   1.900  0.0000  0.0000  0.0000
    1GR    C230  230   1.843   0.246   1.900  0.0000  0.0000  0.0000
    1GR    C231  231   1.914   0.368   1.900  0.0000  0.0000  0.0000
    1GR    C232  232   2.056   0.368   1.900  0.0000  0.0000  0.0000
    1GR    C233  233   1.702   0.491   1.900  0.0000  0.0000  0.0000
    1GR    C234  234   1.843   0.491   1.900  0.0000  0.0000  0.0000
    1GR    C235  235   1.914   0.614   1.900  0.0000  0.0000  0.0000
    1GR    C236  236   2.056   0.614   1.900  0.0000  0.0000  0.0000
    1GR    C237  237   1.702   0.737   1.900  0.0000  0.0000  0.0000
    1GR    C238  238   1.843   0.737   1.900  0.0000  0.0000  0.0000
    1GR    C239  239   1.914   0.860   1.900  0.0000  0.0000  0.0000
    1GR    C240  240   2.056   0.860   1.900  0.0000  0.0000  0.0000
    1GR    C241  241   1.702   0.982   1.900  0.0000  0.0000  0.0000
    1GR    C242  242   1.843   0.982   1.900  0.0000  0.0000  0.0000
    1GR    C243  243   1.914   1.105   1.900  0.0000  0.0000  0.0000
    1GR    C244  244   2.056   1.105   1.900  0.0000  0.0000  0.0000
    1GR    C245  245   1.702   1.228   1.900  0.0000  0.0000  0.0000
    1GR    C246  246   1.843   1.228   1.900  0.0000  0.0000  0.0000
    1GR    C247  247   1.914   1.351   1.900  0.0000  0.0000  0.0000
    1GR    C248  248   2.056   1.351   1.900  0.0000  0.0000  0.0000
    1GR    C249  249   1.702   1.474   1.900  0.0000  0.0000  0.0000
    1GR    C250  250   1.843   1.474   1.900  0.0000  0.0000  0.0000
    1GR    C251  251   1.914   1.596   1.900  0.0000  0.0000  0.0000
    1GR    C252  252   2.056   1.596   1.900  0.0000  0.0000  0.0000
    1GR    C253  253   1.702   1.719   1.900  0.0000  0.0000  0.0000
    1GR    C254  254   1.843   1.719   1.900  0.0000  0.0000  0.0000
    1GR    C255  255   1.914   1.842   1.900  0.0000  0.0000  0.0000
    1GR    C256  256   2.056   1.842   1.900  0.0000  0.0000  0.0000
    1GR    C257  257   1.702   1.965   1.900  0.0000  0.0000  0.0000
    1GR    C258  258   1.843   1.965   1.900  0.0000  0.0000  0.0000
    1GR    C259  259   1.914   2.088   1.900  0.0000  0.0000  0.0000
    1GR    C260  260   2.056   2.088   1.900  0.0000  0.0000  0.0000
    1GR    C261  261   1.702   2.210   1.900  0.0000  0.0000  0.0000
    1GR    C262  262   1.843   2.210   1.900  0.0000  0.0000  0.0000
    1GR    C263  263   1.914   2.333   1.900  0.0000  0.0000  0.0000
    1GR    C264  264   2.056   2.333   1.900  0.0000  0.0000  0.0000
    1GR    C265  265   1.702   2.456   1.900  0.0000  0.0000  0.0000
    1GR    C266  266   1.843   2.456   1.900  0.0000  0.0000  0.0000
    1GR    C267  267   1.914   2.579   1.900  0.0000  0.0000  0.0000
    1GR    C268  268   2.056   2.579   1.900  0.0000  0.0000  0.0000
    1GR    C269  269   1.702   2.702   1.900  0.0000  0.0000  0.0000
    1GR    C270  270   1.843   2.702   1.900  0.0000  0.0000  0.0000
    1GR    C271  271   1.914   2.824   1.900  0.0000  0.0000  0.0000
    1GR    C272  272   2.056   2.824   1.900  0.0000  0.0000  0.0000
    1GR    C273  273   1.702   2.947   1.900  0.0000  0.0000  0.0000
    1GR    C274  274   1.843   2.947   1.900  0.0000  0.0000  0.0000
    1GR    C275  275   1.914   3.070   1.900  0.0000  0.0000  0.0000
    1GR    C276  276   2.056   3.070   1.900  0.0000  0.0000  0.0000
    1GR    C277  277   1.702   3.193   1.900  0.0000  0.0000  0.0000
    1GR    C278  278   1.843   3.193   1.900  0.0000  0.0000  0.0000
    1GR    C279  279   1.914   3.316   1.900  0.0000  0.0000  0.0000
    1GR    C280  280   2.056   3.316   1.900  0.0000  0.0000  0.0000
    1GR    C281  281   2.127   0.000   1.900  0.0000  0.0000  0.0000
    1GR    C282  282   2.269   0.000   1.900  0.0000  0.0000  0.0000
    1GR    C283  283   2.340   0.123   1.900  0.0000  0.0000  0.0000
    1GR    C284  284   2.481   0.123   1.900  0.0000  0.0000  0.0000
    1GR    C285  285   2.127   0.246   1.900  0.0000  0.0000  0.0000
    1GR    C286  286   2.269   0.246   1.900  0.0000  0.0000  0.0000
    1GR    C287  287   2.340   0.368   1.900  0.0000  0.0000  0.0000
    1GR    C288  288   2.481   0.368   1.900  0.0000  0.0000  0.0000
    1GR    C289  289   2.127   0.491   1.900  0.0000  0.0000  0.0000
    1GR    C290  290   2.269   0.491   1.900  0.0000  0.0000  0.0000
    1GR    C291  291   2.340   0.614   1.900  0.0000  0.0000  0.0000
    1GR    C292  292   2.481   0.614   1.900  0.0000  0.0000  0.0000
    1GR    C293  293   2.127   0.737   1.900  0.0000  0.0000  0.0000
    1GR    C294  294   2.269   0.737   1.900  0.0000  0.0000  0.0000
    1GR    C295  295   2.340   0.860   1.900  0.0000  0.0000  0.0000
    1GR    C296  296   2.481   0.860   1.900  0.0000  0.0000  0.0000
    1GR    C297  297   2.127   0.982   1.900  0.0000  0.0000  0.0000
    1GR    C298  298   2.269   0.982   1.900  0.0000  0.0000  0.0000
    1GR    C299  299   2.340   1.105   1.900  0.0000  0.0000  0.0000
    1GR    C300  300   2.481   1.105   1.900  0.0000  0.0000  0.0000
    1GR    C301  301   2.127   1.228   1.900  0.0000  0.0000  0.0000
    1GR    C302  302   2.269   1.228   1.900  0.0000  0.0000  0.0000
    1GR    C303  303   2.340   1.351   1.900  0.0000  0.0000  0.0000
    1GR    C304  304   2.481   1.351   1.900  0.0000  0.0000  0.0000
    1GR    C305  305   2.127   1.474   1.900  0.0000  0.0000  0.0000
    1GR    C306  306   2.269   1.474   1.900  0.0000  0.0000  0.0000
    1GR    C307  307   2.340   1.596   1.900  0.0000  0.0000  0.0000
    1GR    C308  308   2.481   1.596   1.900  0.0000  0.0000  0.0000
    1GR    C309  309   2.127   1.719   1.900  0.0000  0.0000  0.0000
    1GR    C310  310   2.269   1.719   1.900  0.0000  0.0000  0.0000
    1GR    C311  311   2.340   1.842   1.900  0.0000  0.0000  0.0000
    1GR    C312  312   2.481   1.842   1.900  0.0000  0.0000  0.0000
    1GR    C313  313   2.127   1.965   1.900  0.0000  0.0000  0.0000
    1GR    C314  314   2.269   1.965   1.900  0.0000  0.0000  0.0000
    1GR    C315  315   2.340   2.088   1.900  0.0000  0.0000  0.0000
    1GR    C316  316   2.481   2.088   1.900  0.0000  0.0000  0.0000
    1GR    C317  317   2.127   2.210   1.900  0.0000  0.0000  0.0000
    1GR    C318  318   2.269   2.210   1.900  0.0000  0.0000  0.0000
    1GR    C319  319   2.340   2.333   1.900  0.0000  0.0000  0.0000
    1GR    C320  320   2.481   2.333   1.900  0.0000  0.0000  0.0000
    1GR    C321  321   2.127   2.456   1.900  0.0000  0.0000  0.0000
    1GR    C322  322   2.269   2.456   1.900  0.0000  0.0000  0.0000
    1GR    C323  323   2.340   2.579   1.900  0.0000  0.0000  0.0000
    1GR    C324  324   2.481   2.579   1.900  0.0000  0.0000  0.0000
    1GR    C325  325   2.127   2.702   1.900  0.0000  0.0000  0.0000
    1GR    C326  326   2.269   2.702   1.900  0.0000  0.0000  0.0000
    1GR    C327  327   2.340   2.824   1.900  0.0000  0.0000  0.0000
    1GR    C328  328   2.481   2.824   1.900  0.0000  0.0000  0.0000
    1GR    C329  329   2.127   2.947   1.900  0.0000  0.0000  0.0000
    1GR    C330  330   2.269   2.947   1.900  0.0000  0.0000  0.0000
    1GR    C331  331   2.340   3.070   1.900  0.0000  0.0000  0.0000
    1GR    C332  332   2.481   3.070   1.900  0.0000  0.0000  0.0000
    1GR    C333  333   2.127   3.193   1.900  0.0000  0.0000  0.0000
    1GR    C334  334   2.269   3.193   1.900  0.0000  0.0000  0.0000
    1GR    C335  335   2.340   3.316   1.900  0.0000  0.0000  0.0000
    1GR    C336  336   2.481   3.316   1.900  0.0000  0.0000  0.0000
    1GR    C337  337   2.552   0.000   1.900  0.0000  0.0000  0.0000
    1GR    C338  338   2.694   0.000   1.900  0.0000  0.0000  0.0000
    1GR    C339  339   2.765   0.123   1.900  0.0000  0.0000  0.0000
    1GR    C340  340   2.907   0.123   1.900  0.0000  0.0000  0.0000
    1GR    C341  341   2.552   0.246   1.900  0.0000  0.0000  0.0000
    1GR    C342  342   2.694   0.246   1.900  0.0000  0.0000  0.0000
    1GR    C343  343   2.765   0.368   1.900  0.0000  0.0000  0.0000
    1GR    C344  344   2.907   0.368   1.900  0.0000  0.0000  0.0000
    1GR    C345  345   2.552   0.491   1.900  0.0000  0.0000  0.0000
    1GR    C346  346   2.694   0.491   1.900  0.0000  0.0000  0.0000
    1GR    C347  347   2.765   0.614   1.900  0.0000  0.0000  0.0000
    1GR    C348  348   2.907   0.614   1.900  0.0000  0.0000  0.0000
    1GR    C349  349   2.552   0.737   1.900  0.0000  0.0000  0.0000
    1GR    C350  350   2.694   0.737   1.900  0.0000  0.0000  0.0000
    1GR    C351  351   2.765   0.860   1.900  0.0000  0.0000  0.0000
    1GR    C352  352   2.907   0.860   1.900  0.0000  0.0000  0.0000
    1GR    C353  353   2.552   0.982   1.900  0.0000  0.0000  0.0000
    1GR    C354  354   2.694   0.982   1.900  0.0000  0.0000  0.0000
    1GR    C355  355   2.765   1.105   1.900  0.0000  0.0000  0.0000
    1GR    C356  356   2.907   1.105   1.900  0.0000  0.0000  0.0000
    1GR    C357  357   2.552   1.228   1.900  0.0000  0.0000  0.0000
    1GR    C358  358   2.694   1.228   1.900  0.0000  0.0000  0.0000
    1GR    C359  359   2.765   1.351   1.900  0.0000  0.0000  0.0000
    1GR    C360  360   2.907   1.351   1.900  0.0000  0.0000  0.0000
    1GR    C361  361   2.552   1.474   1.900  0.0000  0.0000  0.0000
    1GR    C362  362   2.694   1.474   1.900  0.0000  0.0000  0.0000
    1GR    C363  363   2.765   1.596   1.900  0.0000  0.0000  0.0000
    1GR    C364  364   2.907   1.596   1.900  0.0000  0.0000  0.0000
    1GR    C365  365   2.552   1.719   1.900  0.0000  0.0000  0.0000
    1GR    C366  366   2.694   1.719   1.900  0.0000  0.0000  0.0000
    1GR    C367  367   2.765   1.842   1.900  0.0000  0.0000  0.0000
    1GR    C368  368   2.907   1.842   1.900  0.0000  0.0000  0.0000
    1GR    C369  369   2.552   1.965   1.900  0.0000  0.0000  0.0000
    1GR    C370  370   2.694   1.965   1.900  0.0000  0.0000  0.0000
    1GR    C371  371   2.765   2.088   1.900  0.0000  0.0000  0.0000
    1GR    C372  372   2.907   2.088   1.900  0.0000  0.0000  0.0000
    1GR    C373  373   2.552   2.210   1.900  0.0000  0.0000  0.0000
    1GR    C374  374   2.694   2.210   1.900  0.0000  0.0000  0.0000
    1GR    C375  375   2.765   2.333   1.900  0.0000  0.0000  0.0000
    1GR    C376  376   2.907   2.333   1.900  0.0000  0.0000  0.0000
    1GR    C377  377   2.552   2.456   1.900  0.0000  0.0000  0.0000
    1GR    C378  378   2.694   2.456   1.900  0.0000  0.0000  0.0000
    1GR    C379  379   2.765   2.579   1.900  0.0000  0.0000  0.0000
    1GR    C380  380   2.907   2.579   1.900  0.0000  0.0000  0.0000
    1GR    C381  381   2.552   2.702   1.900  0.0000  0.0000  0.0000
    1GR    C382  382   2.694   2.702   1.900  0.0000  0.0000  0.0000
    1GR    C383  383   2.765   2.824   1.900  0.0000  0.0000  0.0000
    1GR    C384  384   2.907   2.824   1.900  0.0000  0.0000  0.0000
    1GR    C385  385   2.552   2.947   1.900  0.0000  0.0000  0.0000
    1GR    C386  386   2.694   2.947   1.900  0.0000  0.0000  0.0000
    1GR    C387  387   2.765   3.070   1.900  0.0000  0.0000  0.0000
    1GR    C388  388   2.907   3.070   1.900  0.0000  0.0000  0.0000
    1GR    C389  389   2.552   3.193   1.900  0.0000  0.0000  0.0000
    1GR    C390  390   2.694   3.193   1.900  0.0000  0.0000  0.0000
    1GR    C391  391   2.765   3.316   1.900  0.0000  0.0000  0.0000
    1GR    C392  392   2.907   3.316   1.900  0.0000  0.0000  0.0000
    1GR    C393  393   2.978   0.000   1.900  0.0000  0.0000  0.0000
    1GR    C394  394   3.120   0.000   1.900  0.0000  0.0000  0.0000
    1GR    C395  395   3.191   0.123   1.900  0.0000  0.0000  0.0000
    1GR    C396  396   3.332   0.123   1.900  0.0000  0.0000  0.0000
    1GR    C397  397   2.978   0.246   1.900  0.0000  0.0000  0.0000
    1GR    C398  398   3.120   0.246   1.900  0.0000  0.0000  0.0000
    1GR    C399  399   3.191   0.368   1.900  0.0000  0.0000  0.0000
    1GR    C400  400   3.332   0.368   1.900  0.0000  0.0000  0.0000
    1GR    C401  401   2.978   0.491   1.900  0.0000  0.0000  0.0000
    1GR    C402  402   3.120   0.491   1.900  0.0000  0.0000  0.0000
    1GR    C403  403   3.191   0.614   1.900  0.0000  0.0000  0.0000
    1GR    C404  404   3.332   0.614   1.900  0.0000  0.0000  0.0000
    1GR    C405  405   2.978   0.737   1.900  0.0000  0.0000  0.0000
    1GR    C406  406   3.120   0.737   1.900  0.0000  0.0000  0.0000
    1GR    C407  407   3.191   0.860   1.900  0.0000  0.0000  0.0000
    1GR    C408  408   3.332   0.860   1.900  0.0000  0.0000  0.0000
    1GR    C409  409   2.978   0.982   1.900  0.0000  0.0000  0.0000
    1GR    C410  410   3.120   0.982   1.900  0.0000  0.0000  0.0000
    1GR    C411  411   3.191   1.105   1.900  0.0000  0.0000  0.0000
    1GR    C412  412   3.332   1.105   1.900  0.0000  0.0000  0.0000
    1GR    C413  413   2.978   1.228   1.900  0.0000  0.0000  0.0000
    1GR    C414  414   3.120   1.228   1.900  0.0000  0.0000  0.0000
    1GR    C415  415   3.191   1.351   1.900  0.0000  0.0000  0.0000
    1GR    C416  416   3.332   1.351   1.900  0.0000  0.0000  0.0000
    1GR    C417  417   2.978   1.474   1.900  0.0000  0.0000  0.0000
    1GR    C418  418   3.120   1.474   1.900  0.0000  0.0000  0.0000
    1GR    C419  419   3.191   1.596   1.900  0.0000  0.0000  0.0000
    1GR    C420  420   3.332   1.596   1.900  0.0000  0.0000  0.0000
    1GR    C421  421   2.978   1.719   1.900  0.0000  0.0000  0.0000
    1GR    C422  422   3.120   1.719   1.900  0.0000  0.0000  0.0000
    1GR    C423  423   3.191   1.842   1.900  0.0000  0.0000  0.0000
    1GR    C424  424   3.332   1.842   1.900  0.0000  0.0000  0.0000
    1GR    C425  425   2.978   1.965   1.900  0.0000  0.0000  0.0000
    1GR    C426  426   3.120   1.965   1.900  0.0000  0.0000  0.0000
    1GR    C427  427   3.191   2.088   1.900  0.0000  0.0000  0.0000
    1GR    C428  428   3.332   2.088   1.900  0.0000  0.0000  0.0000
    1GR    C429  429   2.978   2.210   1.900  0.0000  0.0000  0.0000
    1GR    C430  430   3.120   2.210   1.900  0.0000  0.0000  0.0000
    1GR    C431  431   3.191   2.333   1.900  0.0000  0.0000  0.0000
    1GR    C432  432   3.332   2.333   1.900  0.0000  0.0000  0.0000
    1GR    C433  433   2.978   2.456   1.900  0.0000  0.0000  0.0000
    1GR    C434  434   3.120   2.456   1.900  0.0000  0.0000  0.0000
    1GR    C435  435   3.191   2.579   1.900  0.0000  0.0000  0.0000
    1GR    C436  436   3.332   2.579   1.900  0.0000  0.0000  0.0000
    1GR    C437  437   2.978   2.702   1.900  0.0000  0.0000  0.0000
    1GR    C438  438   3.120   2.702   1.900  0.0000  0.0000  0.0000
    1GR    C439  439   3.191   2.824   1.900  0.0000  0.0000  0.0000
    1GR    C440  440   3.332   2.824   1.900  0.0000  0.0000  0.0000
    1GR    C441  441   2.978   2.947   1.900  0.0000  0.0000  0.0000
    1GR    C442  442   3.120   2.947   1.900  0.0000  0.0000  0.0000
    1GR    C443  443   3.191   3.070   1.900  0.0000  0.0000  0.0000
    1GR    C444  444   3.332   3.070   1.900  0.0000  0.0000  0.0000
    1GR    C445  445   2.978   3.193   1.900  0.0000  0.0000  0.0000
    1GR    C446  446   3.120   3.193   1.900  0.0000  0.0000  0.0000
    1GR    C447  447   3.191   3.316   1.900  0.0000  0.0000  0.0000
    1GR    C448  448   3.332   3.316   1.900  0.0000  0.0000  0.0000
    2PMMA   CX1  449   0.521   1.996   3.200  0.3618 -0.3832  0.2769
    2PMMA   CA2  450   0.606   1.867   3.194 -0.1954  0.2751  0.0683
    2PMMA   CX3  451   0.744   1.906   3.118  0.8931  0.5351 -0.1542
    2PMMA    C4  452   0.630   1.825   3.340 -0.2224 -0.0244 -0.4801
    2PMMA    O5  453   0.537   1.790   3.407 -0.0338  0.4315 -1.0314
    2PMMA   OS6  454   0.760   1.814   3.375 -0.3100 -0.3156 -0.3012
    2PMMA   CE7  455   0.794   1.756   3.502 -1.0882 -0.1825 -0.0608
    2PMMA   CX8  456   0.521   1.756   3.115 -0.6542  0.2333  0.4960
    2PMMA   CA9  457   0.579   1.608   3.087 -0.0725  0.2796 -0.1162
    2PMMA  CX10  458   0.672   1.599   2.960 -0.0586 -0.3263 -0.2408
    2PMMA   C11  459   0.448   1.535   3.050 -0.0529  0.3985  0.9177
    2PMMA   O12  460   0.406   1.508   2.940 -0.3897  0.4804 -0.5583
    2PMMA  OS13  461   0.405   1.469   3.158  0.0893 -0.0050 -0.3796
    2PMMA  CE14  462   0.291   1.384   3.158  0.4625 -0.8202  0.9913
    2PMMA  CX15  463   0.646   1.548   3.220  0.2516 -0.3747  0.5013
    2PMMA  CA16  464   0.711   1.405   3.235  0.3850  0.2356  0.6441
    2PMMA  CX17  465   0.742   1.393   3.382 -0.3231 -1.0704 -0.3905
    2PMMA   C18  466   0.616   1.302   3.180 -0.4963  0.5901  0.0191
    2PMMA   O19  467   0.547   1.228   3.241 -0.0354  0.2771  0.2009
    2PMMA  OS20  468   0.628   1.291   3.044  0.0689  0.2156  0.4382
    2PMMA  CE21  469   0.553   1.190   2.981  0.2124 -0.3313 -0.0763
    2PMMA  CX22  470   0.847   1.396   3.163 -0.5277  0.3383  0.2176
    2PMMA  CA23  471   0.939   1.269   3.162  0.0228 -0.3410  0.3410
    2PMMA  CX24  472   0.878   1.138   3.127 -0.4132  0.0691  0.9167
    2PMMA   C25  473   1.014   1.255   3.295  0.2059 -0.8215 -0.6073
    2PMMA   O26  474   1.044   1.348   3.368 -0.3905  0.0219  0.4327
    2PMMA  OS27  475   1.040   1.131   3.334 -0.3993  0.1961 -0.1064
    2PMMA  CE28  476   1.097   1.091   3.458 -0.5110  0.2885 -0.0041
    2PMMA  CX29  477   1.048   1.282   3.053  0.0999  0.0447  0.4418
    2PMMA  HC30  478   0.505   2.054   3.108  0.9473 -0.1319  0.3306
    2PMMA  HC31  479   0.423   1.977   3.245  0.6161  0.9613  1.4082
    2PMMA  HC32  480   0.574   2.067   3.264  0.1281 -1.0814  1.2551
    2PMMA  HC33  481   0.813   1.821   3.124  1.3227  1.0307  2.6653
    2PMMA  HC34  482   0.797   1.992   3.161 -0.6055  2.2322 -1.5988
    2PMMA  HC35  483   0.738   1.924   3.010  2.3472  0.9751 -0.1781
    2PMMA  H136  484   0.740   1.805   3.582 -1.9747 -0.2533 -0.6022
    2PMMA  H137  485   0.902   1.751   3.519 -1.2838 -2.6611  0.6818
    2PMMA  H138  486   0.755   1.654   3.514 -0.0103 -0.6575 -0.5082
    2PMMA  HC39  487   0.424   1.747   3.165  0.0528 -1.2156  1.6557
    2PMMA  HC40  488   0.499   1.800   3.017  1.3620  2.2505  0.9118
    2PMMA  HC41  489   0.649   1.670   2.881 -1.1951  1.9831  2.0966
    2PMMA  HC42  490   0.771   1.619   3.002 -0.1164 -0.4386 -0.0506
    2PMMA  HC43  491   0.675   1.504   2.906  1.3449 -1.0003  0.9816
    2PMMA  H144  492   0.277   1.334   3.254 -0.7096  0.1585  1.3460
    2PMMA  H145  493   0.304   1.309   3.081 -3.4474 -0.9511  0.3968
    2PMMA  H146  494   0.197   1.435   3.138  0.7312 -1.5120 -2.2775
    2PMMA  HC47  495   0.727   1.615   3.251  1.8817 -1.5828 -1.1436
    2PMMA  HC48  496   0.565   1.565   3.293  0.9466  2.2415  0.7320
    2PMMA  HC49  497   0.815   1.469   3.412 -1.0018 -0.0387 -1.3002
    2PMMA  HC50  498   0.780   1.295   3.413  0.3890 -0.4099  0.8374
    2PMMA  HC51  499   0.649   1.400   3.438  0.6893  1.8444  1.0387
    2PMMA  H152  500   0.451   1.228   2.975  0.4573  0.3012 -0.2217
    2PMMA  H153  501   0.542   1.094   3.031 -1.4608 -0.3102 -0.3968
    2PMMA  H154  502   0.594   1.163   2.883  0.8987  2.1815 -0.5177
    2PMMA  HC55  503   0.828   1.418   3.057 -0.1191 -0.0987  0.0503
    2PMMA  HC56  504   0.898   1.488   3.193 -0.2050  0.7331 -1.5020
    2PMMA  HC57  505   0.955   1.061   3.120 -0.1594  0.4511 -0.5319
    2PMMA  HC58  506   0.807   1.108   3.206  0.3754  0.4075  1.7615
    2PMMA  HC59  507   0.830   1.126   3.030 -1.2475  2.3703  1.0104
    2PMMA  H160  508   1.189   1.150   3.465  1.1237 -2.1665  0.0029
    2PMMA  H161  509   1.123   0.985   3.452  1.2663  0.7343 -0.7848
    2PMMA  H162  510   1.029   1.107   3.541 -0.3616 -1.8173  0.5596
    2PMMA  HC63  511   1.119   1.198   3.054  0.4142  0.2412 -2.1113
    2PMMA  HC64  512   0.998   1.286   2.956 -0.9392  1.3847  1.0171
    2PMMA  HC65  513   1.095   1.380   3.068  1.3859 -0.5590  0.3923
    3ANI     C1  514   0.044   3.177   1.190  0.3567 -0.1899  0.3297
    3ANI     O1  515  -0.015   3.045   1.173 -0.0185  0.0695 -0.8302
    3ANI     C2  516   0.029   2.955   1.082 -0.1122 -0.2742  0.0834
    3ANI     C3  517   0.155   2.957   1.025  0.1435  0.9956  0.0755
    3ANI     C4  518   0.186   2.859   0.928 -0.1305 -0.0730 -0.5478
    3ANI     C5  519   0.089   2.772   0.889 -0.1067  0.3203  0.1971
    3ANI     C6  520  -0.047   2.777   0.937 -0.0080 -0.3209 -0.2537
    3ANI     C7  521  -0.075   2.867   1.038 -0.2810 -0.0420 -0.0094
    3ANI     H1  522   0.035   3.238   1.100 -0.7011 -0.0770  0.5092
    3ANI     H2  523  -0.011   3.231   1.268 -1.1229 -0.7009 -0.3491
    3ANI     H3  524   0.148   3.165   1.223  0.4832 -1.8482 -0.6043
    3ANI     H4  525   0.226   3.036   1.052  0.3972  0.7468  0.1353
    3ANI     H5  526   0.286   2.854   0.886  0.5856  2.6946  0.6792
    3ANI     H6  527   0.116   2.689   0.824 -0.9182 -0.0846  0.3645
    3ANI     H7  528  -0.122   2.709   0.899 -0.5940  0.6669 -0.8903
    3ANI     H8  529  -0.174   2.872   1.082 -0.0191 -0.8936  0.6919
    4ANI     C1  530   1.723   1.883   0.659 -0.3408 -0.2629  0.2617
    4ANI     O1  531   1.719   1.821   0.787  0.2901  0.2618 -0.6310
    4ANI     C2  532   1.694   1.688   0.801  0.4909  0.3656  0.1089
    4ANI     C3  533   1.617   1.617   0.708  0.4620  0.5637 -0.1107
    4ANI     C4  534   1.595   1.478   0.727 -0.6708  0.3080  0.3204
    4ANI     C5  535   1.658   1.410   0.834 -0.0072  0.5778  1.0134
    4ANI     C6  536   1.744   1.490   0.918 -0.0145  0.9617  0.8141
    4ANI     C7  537   1.762   1.626   0.900 -0.5788  0.7547  0.3768
    4ANI     H1  538   1.806   1.844   0.599 -0.0631 -0.1866  0.5963
    4ANI     H2  539   1.625   1.864   0.612  0.8431 -2.3429 -1.5099
    4ANI     H3  540   1.734   1.991   0.672 -2.8697 -0.1015  1.2593
    4ANI     H4  541   1.552   1.671   0.641  0.5162 -2.0574 -2.3517
    4ANI     H5  542   1.536   1.426   0.651 -0.4577 -0.0587  0.4024
    4ANI     H6  543   1.655   1.303   0.854  0.4245  0.3160 -0.2536
    4ANI     H7  544   1.792   1.442   1.003 -1.7493 -1.0584  0.7275
    4ANI     H8  545   1.828   1.679   0.967 -1.4563  0.6159  1.3706
    5ANI     C1  546   3.228   2.542   2.621  0.5398  0.0543  0.1650
    5ANI     O1  547   3.313   2.655   2.622 -0.0408 -0.1040  0.1314
    5ANI     C2  548   3.292   2.768   2.692 -0.1228 -0.4720 -0.7656
    5ANI     C3  549   3.211   2.767   2.803 -0.1047  0.0714  0.1016
    5ANI     C4  550   3.199   2.884   2.876  0.1199 -0.0506  0.1477
    5ANI     C5  551   3.266   3.004   2.832 -0.2654 -0.4608 -0.2389
    5ANI     C6  552   3.348   3.002   2.717  0.4831  0.6093 -0.0041
    5ANI     C7  553   3.358   2.880   2.648  0.4260  0.2635  0.5927
    5ANI     H1  554   3.233   2.483   2.713  0.7677 -1.9727 -1.1017
    5ANI     H2  555   3.126   2.581   2.616  0.1965 -0.9280 -0.9492
    5ANI     H3  556   3.256   2.471   2.542  1.7439  0.7208 -0.0221
    5ANI     H4  557   3.156   2.677   2.830  0.0670 -1.0700 -3.1259
    5ANI     H5  558   3.140   2.886   2.968 -0.8028 -1.6399 -0.4002
    5ANI     H6  559   3.255   3.103   2.876 -0.1303 -1.1131  1.3014
    5ANI     H7  560   3.400   3.088   2.676 -0.8417  0.2831 -2.4498
    5ANI     H8  561   3.421   2.872   2.560  0.8948  0.3802  0.9170
    6ANI     C1  562   0.261   2.634   2.438  0.6095 -0.5403  0.5565
    6ANI     O1  563   0.332   2.550   2.344 -0.0095 -0.1147  0.4832
    6ANI     C2  564   0.329   2.414   2.370  0.0389 -0.7504  0.1655
    6ANI     C3  565   0.253   2.348   2.471 -0.0673  0.3638 -0.4690
    6ANI     C4  566   0.258   2.213   2.491  0.0294 -0.3596 -0.1065
    6ANI     C5  567   0.326   2.132   2.397  0.2041 -0.4755  0.3446
    6ANI     C6  568   0.410   2.199   2.305 -0.0000 -0.2051 -0.3892
    6ANI     C7  569   0.420   2.337   2.298  0.0951  0.0352 -0.1021
    6ANI     H1  570   0.254   2.739   2.409  1.4454 -0.6978 -0.2695
    6ANI     H2  571   0.163   2.589   2.454 -0.2295  0.8293 -0.6270
    6ANI     H3  572   0.311   2.629   2.536  0.9580  0.8846  0.4562
    6ANI     H4  573   0.186   2.401   2.538  0.9278  3.1438 -1.5631
    6ANI     H5  574   0.206   2.165   2.572 -0.7508  1.3689  0.4300
    6ANI     H6  575   0.332   2.024   2.403 -0.8203 -0.5175  0.5922
    6ANI     H7  576   0.477   2.137   2.245  2.2230 -0.3761  2.1725
    6ANI     H8  577   0.482   2.385   2.223 -2.7638  2.3574 -1.0859
    7ANI     C1  578   1.874   0.494   2.872 -0.7392  0.4390  0.1225
    7ANI     O1  579   1.990   0.546   2.933 -0.4155  0.0669 -0.0756
    7ANI     C2  580   2.005   0.684   2.950  0.4390  0.5470  0.4091
    7ANI     C3  581   1.901   0.772   2.917  1.0903 -0.7313 -0.4523
    7ANI     C4  582   1.923   0.906   2.928  0.1159  0.8687  0.1320
    7ANI     C5  583   2.044   0.956   2.980  0.4785  0.7771  0.5197
    7ANI     C6  584   2.156   0.868   3.012 -0.2573  0.7203 -0.1625
    7ANI     C7  585   2.129   0.730   2.993 -0.3336 -0.1939 -0.4919
    7ANI     H1  586   1.882   0.384   2.870  3.4876  0.7053 -0.9937
    7ANI     H2  587   1.786   0.512   2.935  0.5090  1.1853  1.6951
    7ANI     H3  588   1.869   0.517   2.765 -0.1656  1.7837  0.3772
    7ANI     H4  589   1.803   0.740   2.883  0.0278  0.7808  1.0606
    7ANI     H5  590   1.839   0.969   2.900 -2.2117 -2.6004 -0.9896
    7ANI     H6  591   2.050   1.062   3.007  0.2724  0.1969  3.0114
    7ANI     H7  592   2.248   0.902   3.058 -1.3929  1.0066  1.9929
    7ANI     H8  593   2.213   0.671   3.029  0.8501  2.8017  1.8828
    8ANI     C1  594   1.608   2.178   1.548 -0.1621 -0.0673 -0.3907
    8ANI     O1  595   1.678   2.297   1.521  0.5971  0.3801 -0.2242
    8ANI     C2  596   1.816   2.311   1.532  1.3033 -0.7443  0.3239
    8ANI     C3  597   1.880   2.433   1.501  0.4682 -0.3968 -0.0424
    8ANI     C4  598   2.019   2.443   1.501 -1.0433  0.5887 -0.2939
    8ANI     C5  599   2.096   2.331   1.534 -0.1681  0.0098 -0.0572
    8ANI     C6  600   2.036   2.214   1.572  0.9026  0.1521 -0.1231
    8ANI     C7  601   1.900   2.197   1.574 -0.2395 -0.3432  0.4033
    8ANI     H1  602   1.613   2.144   1.652 -0.3275 -0.3467 -0.4725
    8ANI     H2  603   1.503   2.209   1.538  0.4548  2.0350 -0.5754
    8ANI     H3  604   1.635   2.101   1.474 -3.0507 -2.3850  0.8816
    8ANI     H4  605   1.819   2.520   1.479 -0.9028 -1.1187  0.8070
    8ANI     H5  606   2.067   2.540   1.487  2.1652 -1.0096 -0.6660
    8ANI     H6  607   2.204   2.342   1.532 -0.2390  1.1362  1.6339
    8ANI     H7  608   2.111   2.137   1.594  1.5533 -0.0294 -2.8400
    8ANI     H8  609   1.861   2.096   1.582  1.9502 -1.1458  1.3199
    9ANI     C1  610   0.040   1.549   2.534  0.5150 -0.1942 -0.4611
    9ANI     O1  611   0.092   1.519   2.664  0.3854 -0.4515 -0.1185
    9ANI     C2  612   0.018   1.445   2.755  0.2309 -0.0335  0.5422
    9ANI     C3  613   0.036   1.458   2.894  0.2169  0.3166 -0.3926
    9ANI     C4  614  -0.042   1.387   2.987 -0.3521  0.4949 -0.6866
    9ANI     C5  615  -0.145   1.300   2.938 -0.4521 -0.0490 -0.2579
    9ANI     C6  616  -0.153   1.277   2.803 -0.7499  0.2879 -0.3023
    9ANI     C7  617  -0.075   1.351   2.708  0.7390 -0.3008 -0.1071
    9ANI     H1  618   0.034   1.468   2.461 -1.6803 -0.4363 -0.0340
    9ANI     H2  619  -0.061   1.587   2.553  0.7948  1.9025 -2.8607
    9ANI     H3  620   0.091   1.632   2.483  0.9403  0.4081  0.9126
    9ANI     H4  621   0.107   1.535   2.920  2.1389 -1.5553 -0.0141
    9ANI     H5  622  -0.030   1.404   3.093  0.7666  0.5339 -0.8122
    9ANI     H6  623  -0.215   1.247   3.002 -0.0239 -1.1647 -0.6905
    9ANI     H7  624  -0.230   1.209   2.767 -0.9358 -0.0464  0.7194
    9ANI     H8  625  -0.081   1.326   2.602 -1.1820 -2.3450  0.4378
   10ANI     C1  626   1.374   2.521   2.271 -0.3119  0.4587 -0.6355
   10ANI     O1  627   1.259   2.605   2.239 -0.9312 -0.1656 -0.0566
   10ANI     C2  628   1.134   2.558   2.252  0.0930  0.6301  0.4655
   10ANI     C3  629   1.107   2.416   2.258 -0.0691 -0.0304  0.4944
   10ANI     C4  630   0.973   2.373   2.269 -0.3073 -0.4870  0.0181
   10ANI     C5  631   0.862   2.465   2.258 -0.1394 -1.1345 -0.4072
   10ANI     C6  632   0.887   2.600   2.269  0.0443 -0.2871  0.4327
   10ANI     C7  633   1.024   2.645   2.260 -0.2082 -0.0345  0.0182
   10ANI     H1  634   1.469   2.574   2.266 -0.1754  0.6768  2.9130
   10ANI     H2  635   1.361   2.481   2.373  1.5959  1.5848  0.0664
   10ANI     H3  636   1.376   2.438   2.200 -0.4517 -0.2181  0.1519
   10ANI     H4  637   1.191   2.349   2.251 -0.4994 -0.4828 -0.3953
   10ANI     H5  638   0.942   2.270   2.284  1.0173 -0.8746  0.1339
   10ANI     H6  639   0.756   2.442   2.251 -0.0625 -0.6581 -4.0983
   10ANI     H7  640   0.808   2.673   2.257  0.8091  0.3075 -1.1379
   10ANI     H8  641   1.047   2.751   2.255  1.0332 -0.3148 -0.3100
   11ANI     C1  642   3.062   0.339   1.530  0.2846  0.5200  1.0338
   11ANI     O1  643   3.110   0.203   1.547 -0.3944  0.1900  0.2505
   11ANI     C2  644   3.241   0.175   1.559  0.4825 -0.5016 -0.3597
   11ANI     C3  645   3.282   0.046   1.593  0.0934 -0.0479 -0.1473
   11ANI     C4  646   3.418   0.012   1.595 -0.6836  0.1067 -0.2406
   11ANI     C5  647   3.513   0.107   1.592  0.1772 -0.4450  0.4464
   11ANI     C6  648   3.483   0.242   1.564 -0.3171 -0.7366 -0.2094
   11ANI     C7  649   3.344   0.273   1.544 -0.6484 -0.0507 -0.4097
   11ANI     H1  650   3.110   0.397   1.609  1.0674  1.2686  0.0187
   11ANI     H2  651   3.086   0.382   1.432 -1.4173 -0.5833  0.1006
   11ANI     H3  652   2.953   0.342   1.540  0.2633 -0.1067  0.9854
   11ANI     H4  653   3.218  -0.036   1.622  2.0551 -1.0183  1.5276
   11ANI     H5  654   3.449  -0.087   1.628 -0.2941  0.2022 -0.3306
   11ANI     H6  655   3.619   0.088   1.606  0.1583 -1.3615 -0.5916
   11ANI     H7  656   3.562   0.316   1.559  0.2442 -1.2261  1.0460
   11ANI     H8  657   3.317   0.372   1.506  3.5312  2.0042  1.6287
   12ANI     C1  658   1.573   0.796   2.704 -0.4032  0.3143  0.4554
   12ANI     O1  659   1.597   0.665   2.753  0.4120 -0.4520 -0.4913
   12ANI     C2  660   1.526   0.559   2.716 -0.3951  0.0035  0.0075
   12ANI     C3  661   1.530   0.455   2.808 -0.5878 -0.3830 -0.1970
   12ANI     C4  662   1.460   0.338   2.786  0.6450 -0.2699  0.0390
   12ANI     C5  663   1.391   0.321   2.667  0.7158  0.4937 -0.7910
   12ANI     C6  664   1.395   0.421   2.570 -0.5247 -0.3141  0.3440
   12ANI     C7  665   1.457   0.544   2.596  0.0999  0.0337  0.5121
   12ANI     H1  666   1.464   0.810   2.706 -0.7216 -1.8300  0.0429
   12ANI     H2  667   1.632   0.867   2.763  0.6587  0.0289 -0.2480
   12ANI     H3  668   1.602   0.804   2.598  0.3000  1.1102  0.7048
   12ANI     H4  669   1.573   0.477   2.905 -1.3811 -0.0643  0.0915
   12ANI     H5  670   1.460   0.267   2.868  0.8694 -0.9510 -0.5515
   12ANI     H6  671   1.328   0.233   2.655 -0.2394  1.1147 -0.4722
   12ANI     H7  672   1.336   0.413   2.479 -0.8162 -0.5521  0.5500
   12ANI     H8  673   1.453   0.623   2.521 -2.4303  0.5186  1.1016
   13ANI     C1  674   1.893   1.548   0.532  0.0313  0.2149  0.4526
   13ANI     O1  675   1.962   1.569   0.403 -0.0546 -0.4641  0.6313
   13ANI     C2  676   2.102   1.583   0.392  0.4631 -1.0874  0.1502
   13ANI     C3  677   2.186   1.634   0.494 -0.0545  0.0553 -0.0570
   13ANI     C4  678   2.320   1.653   0.483 -0.3591 -0.0493  0.3761
   13ANI     C5  679   2.384   1.612   0.363  0.0313  0.5470  0.1721
   13ANI     C6  680   2.308   1.551   0.264 -0.2287  0.0011 -0.1463
   13ANI     C7  681   2.169   1.541   0.268 -0.1055  0.2934  0.1579
   13ANI     H1  682   1.936   1.462   0.585  0.7193 -0.5138 -1.2304
   13ANI     H2  683   1.898   1.636   0.597  0.2725 -0.3925  1.2635
   13ANI     H3  684   1.789   1.520   0.513  0.8337 -1.8606 -1.0694
   13ANI     H4  685   2.139   1.667   0.586 -0.5568  0.9101 -0.6122
   13ANI     H5  686   2.370   1.705   0.564 -1.4362 -1.7521  2.1542
   13ANI     H6  687   2.486   1.646   0.349  0.1757  0.0609  0.0720
   13ANI     H7  688   2.358   1.515   0.175 -0.6021  0.4712 -0.5443
   13ANI     H8  689   2.106   1.495   0.193  0.0096 -1.0519  0.8738
   14ANI     C1  690   1.034   1.907   1.054 -0.6435 -0.0689  0.5662
   14ANI     O1  691   1.003   1.890   1.197 -0.0120 -0.3106 -0.1542
   14ANI     C2  692   1.039   1.986   1.290 -0.0889  0.4017  0.2914
   14ANI     C3  693   1.103   2.109   1.259 -0.1229 -0.4338  0.1241
   14ANI     C4  694   1.111   2.210   1.360 -1.3500  0.2891  0.7156
   14ANI     C5  695   1.056   2.188   1.487 -1.1294 -0.2237 -0.0960
   14ANI     C6  696   1.011   2.057   1.523 -0.4974 -0.0195 -0.5968
   14ANI     C7  697   0.999   1.960   1.426  0.2064  1.0017  0.2327
   14ANI     H1  698   1.001   2.006   1.020  0.3336 -0.8083 -2.6999
   14ANI     H2  699   1.141   1.895   1.032 -0.6987  0.7748 -0.2067
   14ANI     H3  700   0.983   1.828   0.997  0.6490 -0.8106  0.4181
   14ANI     H4  701   1.138   2.134   1.159  0.5847  1.0358  0.7202
   14ANI     H5  702   1.153   2.306   1.332  0.2491 -1.1787 -2.1373
   14ANI     H6  703   1.041   2.270   1.556  0.6533  0.7317 -0.8214
   14ANI     H7  704   0.978   2.039   1.625  0.2482 -0.2513 -0.3933
   14ANI     H8  705   0.956   1.862   1.446  2.8504 -0.5857 -1.6031
   15ANI     C1  706   2.785   1.847   3.509  0.8414 -0.3967  0.0359
   15ANI     O1  707   2.705   1.779   3.609  0.1085 -0.4757 -0.3998
   15ANI     C2  708   2.570   1.800   3.612 -0.0971 -0.0815 -0.3107
   15ANI     C3  709   2.512   1.926   3.578  0.6420 -0.0221  0.0851
   15ANI     C4  710   2.375   1.943   3.596  0.3945 -0.5018 -0.6624
   15ANI     C5  711   2.291   1.830   3.632 -0.1711  0.4249  0.1084
   15ANI     C6  712   2.349   1.708   3.656  0.3454 -0.7170  0.6388
   15ANI     C7  713   2.488   1.689   3.650 -0.4273  0.6454 -0.7643
   15ANI     H1  714   2.744   1.827   3.409  1.0948  1.4763 -0.4588
   15ANI     H2  715   2.778   1.956   3.521 -0.3956 -0.4720  0.0456
   15ANI     H3  716   2.889   1.813   3.515  0.8372 -0.3265  0.4996
   15ANI     H4  717   2.572   2.011   3.546  0.3657  0.7284  1.5241
   15ANI     H5  718   2.338   2.044   3.582 -0.9938 -0.5805  2.0936
   15ANI     H6  719   2.185   1.851   3.646  0.2821  3.1225 -0.1818
   15ANI     H7  720   2.293   1.628   3.705 -0.2926 -0.5790  0.1393
   15ANI     H8  721   2.527   1.594   3.687 -0.3456  1.0231  0.1131
   16ANI     C1  722   0.330   0.164   0.875  0.4075 -0.5652  0.4363
   16ANI     O1  723   0.293   0.024   0.860 -0.5483 -0.0159 -0.1551
   16ANI     C2  724   0.168  -0.014   0.838  0.5203 -0.0842 -0.8591
   16ANI     C3  725   0.054   0.070   0.841 -0.4759 -0.1885 -0.1277
   16ANI     C4  726  -0.073   0.016   0.823 -0.3866  0.2034 -0.9705
   16ANI     C5  727  -0.086  -0.124   0.806 -0.4670 -0.9699 -0.4648
   16ANI     C6  728   0.025  -0.212   0.794 -0.2937 -0.7429  0.3261
   16ANI     C7  729   0.155  -0.151   0.818 -0.6071  0.4738  0.5577
   16ANI     H1  730   0.438   0.173   0.856  0.2739 -0.0138 -0.1117
   16ANI     H2  731   0.288   0.228   0.797  1.7458  0.4848  0.5518
   16ANI     H3  732   0.290   0.203   0.970  1.2719 -0.5732  0.8097
   16ANI     H4  733   0.064   0.178   0.849 -1.2839 -0.2129  1.6653
   16ANI     H5  734  -0.155   0.088   0.832 -0.5693 -0.2209  0.9122
   16ANI     H6  735  -0.186  -0.167   0.806  0.1582 -2.4552 -0.2251
   16ANI     H7  736   0.006  -0.319   0.799 -0.4381 -0.6868  1.0098
   16ANI     H8  737   0.239  -0.212   0.849  0.3984  1.3650 -0.4025
   17ANI     C1  738   1.703   2.035   3.322  0.0147  0.2157 -0.7611
   17ANI     O1  739   1.844   2.077   3.350 -0.6776  0.5603 -0.1138
   17ANI     C2  740   1.946   1.979   3.351 -0.7879 -0.6940 -0.1221
   17ANI     C3  741   1.925   1.848   3.371 -0.3085  0.6097 -0.8883
   17ANI     C4  742   2.033   1.759   3.351 -0.3188 -0.3675  0.8445
   17ANI     C5  743   2.163   1.800   3.324  0.1174 -0.6235 -1.3924
   17ANI     C6  744   2.185   1.934   3.310 -0.2659 -0.1431 -0.3213
   17ANI     C7  745   2.076   2.025   3.322  0.1378 -0.0763  0.2426
   17ANI     H1  746   1.648   2.000   3.411 -0.8958  2.0453 -0.5864
   17ANI     H2  747   1.648   2.121   3.283  1.1133  0.6711 -1.3050
   17ANI     H3  748   1.701   1.949   3.254  1.4570  0.3534 -0.9920
   17ANI     H4  749   1.827   1.811   3.399  0.7844 -1.4346  0.3797
   17ANI     H5  750   2.022   1.651   3.356 -2.1825 -0.2398  0.0235
   17ANI     H6  751   2.237   1.721   3.331  0.2115 -0.4687 -0.6657
   17ANI     H7  752   2.287   1.971   3.306  0.8329 -2.4491  3.4930
   17ANI     H8  753   2.098   2.131   3.320  2.3573 -0.5140 -3.5509
   18ANI     C1  754   1.288   2.150   2.517 -1.2010 -0.6432 -0.5409
   18ANI     O1  755   1.242   2.165   2.650 -0.2922 -0.9910  0.2439
   18ANI     C2  756   1.211   2.052   2.729 -0.7749 -0.3703 -0.0661
   18ANI     C3  757   1.134   2.066   2.841  0.5993  0.1574  0.2683
   18ANI     C4  758   1.092   1.963   2.920  0.2534 -0.3976 -0.0741
   18ANI     C5  759   1.126   1.836   2.884  0.2454 -0.7355 -0.0653
   18ANI     C6  760   1.214   1.813   2.770  0.1181  0.3051  0.0981
   18ANI     C7  761   1.255   1.927   2.696  0.3754 -0.3949  0.5414
   18ANI     H1  762   1.217   2.085   2.464 -0.4333 -1.8956 -0.0399
   18ANI     H2  763   1.309   2.253   2.484  2.0994 -1.4763 -1.2624
   18ANI     H3  764   1.386   2.101   2.522 -0.1540  1.3862 -0.6648
   18ANI     H4  765   1.117   2.168   2.872  1.9531  0.7256 -0.8016
   18ANI     H5  766   1.024   1.977   3.003 -1.8099 -0.4072 -1.6975
   18ANI     H6  767   1.085   1.749   2.934 -3.2281  0.2942 -1.0334
   18ANI     H7  768   1.244   1.712   2.744  1.4564  0.6009  0.4851
   18ANI     H8  769   1.314   1.912   2.605  0.3325  0.1622  0.4213
   19ANI     C1  770   2.898   2.833   0.201 -0.0226  0.1530  0.0393
   19ANI     O1  771   2.868   2.702   0.172 -0.2301 -0.0692  0.0173
   19ANI     C2  772   2.757   2.670   0.100  0.1881 -0.6282 -0.0567
   19ANI     C3  773   2.689   2.769   0.029 -0.2699  0.4049 -0.1592
   19ANI     C4  774   2.581   2.727  -0.054 -0.2529 -0.3845  0.2804
   19ANI     C5  775   2.540   2.596  -0.054 -0.3709  0.0231  0.2480
   19ANI     C6  776   2.611   2.500   0.011 -0.2622  0.5215 -0.3501
   19ANI     C7  777   2.717   2.536   0.088  0.8121  0.7535 -0.3662
   19ANI     H1  778   2.995   2.831   0.253  1.1206  1.2793 -1.9625
   19ANI     H2  779   2.898   2.890   0.107 -0.9850 -2.0216 -1.3263
   19ANI     H3  780   2.817   2.865   0.267 -1.5511 -0.3592 -1.5450
   19ANI     H4  781   2.715   2.874   0.034  1.6366 -0.1228  1.8950
   19ANI     H5  782   2.522   2.799  -0.110 -1.8221  1.3475  3.9324
   19ANI     H6  783   2.454   2.557  -0.109 -0.5571 -0.5331  0.9228
   19ANI     H7  784   2.590   2.394   0.002 -2.6328  0.9059  0.4489
   19ANI     H8  785   2.776   2.465   0.145  0.6260 -0.4700 -1.6936
   20ANI     C1  786   0.299   3.223   0.471 -0.2228  0.2316  0.3861
   20ANI     O1  787   0.267   3.093   0.527 -0.0879 -0.3177  0.3240
   20ANI     C2  788   0.277   2.973   0.461 -0.2749 -0.3467  0.4984
   20ANI     C3  789   0.207   2.855   0.503  0.9851 -0.9799 -0.5035
   20ANI     C4  790   0.215   2.735   0.430  0.2700  0.2336  0.7359
   20ANI     C5  791   0.290   2.729   0.313  0.4989  0.0581  0.1762
   20ANI     C6  792   0.371   2.838   0.280 -0.6112 -0.8381  0.2482
   20ANI     C7  793   0.368   2.955   0.354  0.0132  0.1080 -0.0884
   20ANI     H1  794   0.406   3.219   0.447 -0.2350  0.2691  0.3259
   20ANI     H2  795   0.245   3.243   0.377  2.6409 -1.4094 -1.7006
   20ANI     H3  796   0.284   3.304   0.543 -0.0311  1.0098 -0.4334
   20ANI     H4  797   0.147   2.862   0.593  1.5736 -1.3504 -0.0809
   20ANI     H5  798   0.154   2.648   0.450 -0.9165  0.2426 -2.5219
   20ANI     H6  799   0.287   2.640   0.252 -1.6761  0.2611 -0.0522
   20ANI     H7  800   0.433   2.837   0.191 -2.4194  2.3242 -1.1164
   20ANI     H8  801   0.417   3.035   0.301  1.3955 -1.3087 -0.9830
   21ANI     C1  802   0.759   0.033   1.537  0.4260 -0.4940 -0.1563
   21ANI     O1  803   0.636   0.007   1.474 -0.5060  0.2833  0.3161
   21ANI     C2  804   0.626  -0.003   1.341 -0.3141 -0.7556  0.9615
   21ANI     C3  805   0.735  -0.019   1.255  0.5306 -0.2871  0.4148
   21ANI     C4  806   0.726  -0.029   1.118 -0.2062 -0.3451  0.6017
   21ANI     C5  807   0.595  -0.015   1.058  0.1764  0.5709 -0.2984
   21ANI     C6  808   0.482  -0.008   1.142 -0.8511 -1.0750  0.1553
   21ANI     C7  809   0.499   0.006   1.280 -0.2451  0.2837 -0.0040
   21ANI     H1  810   0.743   0.056   1.643 -1.2146  1.2601 -0.7606
   21ANI     H2  811   0.830  -0.049   1.524  0.9524  0.1571 -1.4604
   21ANI     H3  812   0.807   0.123   1.498  2.9274 -2.1405 -0.9880
   21ANI     H4  813   0.834  -0.019   1.300  0.8187  0.7975 -0.2161
   21ANI     H5  814   0.815  -0.049   1.059 -1.3409 -0.7181 -1.0116
   21ANI     H6  815   0.574  -0.007   0.952 -0.9113  2.8313  0.0517
   21ANI     H7  816   0.381  -0.003   1.104 -1.5542  2.5173  2.2494
   21ANI     H8  817   0.405   0.008   1.333 -1.2094 -1.9681 -1.5623
   22ANI     C1  818   3.368   0.525   2.924 -0.4271  0.6305  0.5280
   22ANI     O1  819   3.440   0.480   2.811 -0.6899 -0.6836 -0.3182
   22ANI     C2  820   3.490   0.356   2.797 -0.1897 -0.7177  0.3935
   22ANI     C3  821   3.533   0.315   2.665  0.1521  0.4470  0.4437
   22ANI     C4  822   3.577   0.187   2.642  0.2527  0.0240 -0.8262
   22ANI     C5  823   3.583   0.094   2.751  0.3551  0.1912  0.4221
   22ANI     C6  824   3.532   0.128   2.871 -0.3621  0.2001 -0.4368
   22ANI     C7  825   3.489   0.260   2.901 -0.0476 -0.7359 -0.7370
   22ANI     H1  826   3.344   0.631   2.909 -0.8009  0.2598 -1.5854
   22ANI     H2  827   3.271   0.476   2.928 -1.1835  2.0214 -0.2871
   22ANI     H3  828   3.426   0.516   3.017  1.6789 -0.0977 -0.8140
   22ANI     H4  829   3.535   0.382   2.580  0.3839 -0.3800 -0.2003
   22ANI     H5  830   3.605   0.155   2.542  1.0032  1.5495 -1.1102
   22ANI     H6  831   3.618  -0.007   2.729 -1.5958 -0.2239 -0.9487
   22ANI     H7  832   3.537   0.049   2.946 -1.0993 -1.1592 -1.7781
   22ANI     H8  833   3.435   0.280   2.993 -1.8305 -1.3346 -1.6274
   23ANI     C1  834   1.572   1.049   0.272 -0.4152 -0.0969 -0.0090
   23ANI     O1  835   1.485   1.065   0.387 -0.2326 -0.3803 -0.2058
   23ANI     C2  836   1.532   1.064   0.519  0.1373  0.4922 -0.0529
   23ANI     C3  837   1.441   1.054   0.628  0.3938  1.1621  0.3123
   23ANI     C4  838   1.485   1.043   0.761 -0.2050  0.1138  0.2617
   23ANI     C5  839   1.618   1.039   0.789  0.0192 -0.0770  0.2357
   23ANI     C6  840   1.711   1.043   0.682 -0.1274  0.9551  0.1126
   23ANI     C7  841   1.670   1.057   0.549  0.4467 -0.1258 -0.1993
   23ANI     H1  842   1.508   1.063   0.184 -0.7297 -3.9351 -0.4997
   23ANI     H2  843   1.651   1.125   0.271 -0.8801  0.4255  1.4629
   23ANI     H3  844   1.616   0.949   0.269 -0.3672 -0.0340 -2.6468
   23ANI     H4  845   1.335   1.056   0.603 -0.0787 -0.4669  2.0701
   23ANI     H5  846   1.421   1.042   0.848  1.5677 -2.1543  1.6029
   23ANI     H6  847   1.660   1.040   0.889 -0.4650 -0.2967  0.4439
   23ANI     H7  848   1.818   1.041   0.696  0.1018 -2.1386 -1.6824
   23ANI     H8  849   1.745   1.063   0.470 -0.7670 -1.8132 -1.5183
   24ANI     C1  850   2.020   2.299   2.220 -0.7389 -0.0224 -0.4156
   24ANI     O1  851   1.996   2.261   2.360 -0.1511  0.3984 -0.3379
   24ANI     C2  852   1.932   2.340   2.452  0.0042 -0.1086 -0.3628
   24ANI     C3  853   1.909   2.481   2.442  0.0455  0.2303 -0.7999
   24ANI     C4  854   1.835   2.549   2.540 -0.3014 -0.2742 -0.0804
   24ANI     C5  855   1.788   2.484   2.653 -0.4319 -0.5822  0.0101
   24ANI     C6  856   1.809   2.346   2.665  0.0728 -0.6663 -0.0978
   24ANI     C7  857   1.879   2.276   2.569  0.1708  1.1895  0.0586
   24ANI     H1  858   1.938   2.349   2.168  0.7764 -0.4418 -3.2823
   24ANI     H2  859   2.102   2.372   2.216  1.6172 -2.6177 -1.2967
   24ANI     H3  860   2.053   2.213   2.160 -1.9119 -2.5545  2.4187
   24ANI     H4  861   1.946   2.526   2.350  1.6099 -1.5331 -1.0756
   24ANI     H5  862   1.804   2.653   2.534 -0.8317 -0.4292 -0.0747
   24ANI     H6  863   1.733   2.536   2.730 -0.6648 -1.0038  0.1350
   24ANI     H7  864   1.762   2.296   2.749 -2.2595  0.4528 -0.6914
   24ANI     H8  865   1.889   2.169   2.578 -2.4920  0.6933 -2.2006
   25ANI     C1  866   1.707   0.695   3.721 -0.1810  0.4733  0.3309
   25ANI     O1  867   1.739   0.805   3.635  0.1496  0.4605 -0.0369
   25ANI     C2  868   1.843   0.790   3.550  0.0172  0.1760  0.1543
   25ANI     C3  869   1.939   0.679   3.549 -0.7654 -0.2006 -0.1369
   25ANI     C4  870   2.039   0.690   3.451  1.0828 -0.3847 -0.5064
   25ANI     C5  871   2.052   0.799   3.365  0.1456 -0.8256 -0.0756
   25ANI     C6  872   1.967   0.904   3.366 -0.1599 -0.7920 -0.9456
   25ANI     C7  873   1.858   0.896   3.455  0.3438  0.4900 -0.1471
   25ANI     H1  874   1.623   0.705   3.791 -0.9750 -1.2587 -0.3426
   25ANI     H2  875   1.674   0.611   3.659  0.7414  1.3556 -1.4011
   25ANI     H3  876   1.790   0.668   3.787  0.5353 -1.9841 -1.5030
   25ANI     H4  877   1.924   0.592   3.613  0.4405  0.7318  1.4617
   25ANI     H5  878   2.118   0.616   3.444  0.3494 -1.1258 -1.0546
   25ANI     H6  879   2.129   0.811   3.289  0.1212  1.3323  0.2322
   25ANI     H7  880   1.992   0.985   3.299  1.5389 -0.3081  0.2502
   25ANI     H8  881   1.788   0.978   3.461  1.1393  1.2560 -1.1132
   26ANI     C1  882   2.924   2.736   1.261  0.6852  0.2548 -0.2555
   26ANI     O1  883   2.998   2.638   1.192  0.2779 -0.3441  0.4890
   26ANI     C2  884   2.973   2.603   1.056 -0.2622 -0.1390 -0.1620
   26ANI     C3  885   2.885   2.680   0.978 -0.3488  0.2887 -0.2050
   26ANI     C4  886   2.855   2.641   0.849  0.1992 -0.3512  0.3886
   26ANI     C5  887   2.927   2.528   0.790 -0.0458 -0.2592 -0.3291
   26ANI     C6  888   3.015   2.444   0.866  0.1171 -0.2028 -0.4331
   26ANI     C7  889   3.043   2.488   0.999 -0.1042  0.4875  0.3801
   26ANI     H1  890   2.931   2.831   1.206 -0.2717  0.5444  0.1178
   26ANI     H2  891   2.818   2.709   1.266  1.4929 -2.7371  2.0707
   26ANI     H3  892   2.975   2.731   1.358  0.9944 -2.1865 -0.5036
   26ANI     H4  893   2.831   2.765   1.018  1.8844  0.8937  1.6092
   26ANI     H5  894   2.789   2.697   0.784  2.1442  0.6192 -0.8096
   26ANI     H6  895   2.909   2.507   0.685 -1.5327 -0.7429 -0.0009
   26ANI     H7  896   3.076   2.366   0.822  0.9390 -0.5465  1.2797
   26ANI     H8  897   3.118   2.435   1.058 -1.7114 -2.9300 -0.5290
   27ANI     C1  898   0.646   3.042   0.025  0.6604 -0.5756  0.3566
   27ANI     O1  899   0.694   2.941   0.118  0.4442  0.4226  0.1994
   27ANI     C2  900   0.720   2.975   0.250  0.1166 -0.1945  0.1936
   27ANI     C3  901   0.727   2.878   0.355 -0.5208  0.0749  0.2804
   27ANI     C4  902   0.729   2.914   0.492 -0.0544 -0.4154  0.7526
   27ANI     C5  903   0.739   3.052   0.521  0.6681 -0.3344  0.1006
   27ANI     C6  904   0.735   3.151   0.427  0.1335  0.8085 -0.1927
   27ANI     C7  905   0.727   3.112   0.286 -0.0449  0.2315 -0.4678
   27ANI     H1  906   0.721   3.122   0.026  0.2909 -0.2331  1.8068
   27ANI     H2  907   0.636   3.000  -0.076  2.4118 -0.8155  0.2655
   27ANI     H3  908   0.546   3.084   0.043  0.1194 -2.3731  1.6356
   27ANI     H4  909   0.739   2.775   0.320  0.2725  0.7294 -1.4475
   27ANI     H5  910   0.760   2.835   0.560  1.7125 -0.4825 -0.1018
   27ANI     H6  911   0.746   3.086   0.624  0.2798  0.7743 -0.2302
   27ANI     H7  912   0.739   3.255   0.458  2.2716  0.5506  0.5037
   27ANI     H8  913   0.717   3.193   0.214 -0.3279  0.5242 -0.1012
   28ANI     C1  914   2.865   1.564   1.124 -0.6402  0.2919  0.1652
   28ANI     O1  915   2.978   1.572   1.213  0.0329 -0.2158 -0.1729
   28ANI     C2  916   3.101   1.517   1.177 -0.2342 -0.4626 -0.0074
   28ANI     C3  917   3.210   1.546   1.259 -0.1773 -0.0098 -0.6011
   28ANI     C4  918   3.333   1.491   1.224 -1.1313  0.1406 -0.5072
   28ANI     C5  919   3.342   1.397   1.122  0.1273 -0.8869  0.1843
   28ANI     C6  920   3.232   1.366   1.041  0.4623 -0.2269  0.7881
   28ANI     C7  921   3.112   1.430   1.066 -0.1600  1.1473 -0.4115
   28ANI     H1  922   2.828   1.461   1.119  2.3622 -1.0586  3.6257
   28ANI     H2  923   2.785   1.627   1.166 -0.0090 -0.5922  2.8011
   28ANI     H3  924   2.903   1.600   1.028  2.9114  1.0661  1.7615
   28ANI     H4  925   3.189   1.620   1.336 -1.5074 -1.5297  0.5294
   28ANI     H5  926   3.418   1.513   1.288 -0.9224  0.8618 -1.0302
   28ANI     H6  927   3.441   1.353   1.109  0.1415 -0.6597 -0.4553
   28ANI     H7  928   3.239   1.319   0.943 -2.3664 -0.7454  0.8099
   28ANI     H8  929   3.029   1.410   0.998  0.0745  0.9023 -0.6256
   29ANI     C1  930   1.880   3.267   0.708 -0.3069  0.2704 -0.0670
   29ANI     O1  931   1.938   3.394   0.688 -0.6136 -0.4829  0.0533
   29ANI     C2  932   1.895   3.475   0.589 -0.3276  0.5941  0.3378
   29ANI     C3  933   1.801   3.434   0.495 -0.3760 -0.7672  0.2695
   29ANI     C4  934   1.765   3.521   0.393 -0.7586 -0.3501 -0.1616
   29ANI     C5  935   1.809   3.653   0.389 -0.1745  0.2265 -0.2754
   29ANI     C6  936   1.913   3.696   0.473  0.3980 -0.6828 -0.6651
   29ANI     C7  937   1.949   3.604   0.577 -0.0229 -0.5303  0.2407
   29ANI     H1  938   1.902   3.199   0.625  4.2199 -1.2036  2.2088
   29ANI     H2  939   1.946   3.233   0.788 -1.1554 -1.1718  0.0299
   29ANI     H3  940   1.777   3.264   0.746 -0.2776  0.2069  0.0064
   29ANI     H4  941   1.756   3.336   0.495 -0.1122 -0.8897  0.8235
   29ANI     H5  942   1.699   3.483   0.316 -1.1725 -0.7643  0.3981
   29ANI     H6  943   1.765   3.721   0.317  1.0880  0.1203 -1.1557
   29ANI     H7  944   1.962   3.791   0.458 -2.3236  0.9516  0.4952
   29ANI     H8  945   2.024   3.633   0.650  0.1698  1.7768 -0.8192
   30ANI     C1  946   0.329   1.539   3.558 -0.2936  0.1158  0.0079
   30ANI     O1  947   0.223   1.443   3.559  0.1570 -0.1041  0.1932
   30ANI     C2  948   0.245   1.308   3.546  0.3395 -0.8989  0.2743
   30ANI     C3  949   0.367   1.260   3.491  0.2050  0.5814 -0.0356
   30ANI     C4  950   0.382   1.123   3.458 -0.3343 -0.1380  0.2197
   30ANI     C5  951   0.276   1.039   3.492  0.3797  0.2677  0.6165
   30ANI     C6  952   0.154   1.085   3.539  0.7792 -0.2440  0.2607
   30ANI     C7  953   0.141   1.217   3.569  0.2378  0.4363 -0.6847
   30ANI     H1  954   0.296   1.643   3.571 -2.2606 -0.5640  0.6463
   30ANI     H2  955   0.392   1.499   3.638 -0.8191  1.7457  1.2603
   30ANI     H3  956   0.370   1.534   3.456  0.2700  2.4099  0.0802
   30ANI     H4  957   0.450   1.326   3.466  1.1924 -1.0945 -1.3248
   30ANI     H5  958   0.473   1.074   3.425 -1.6800 -1.6133 -1.4524
   30ANI     H6  959   0.288   0.934   3.467 -0.0958  0.2037  0.6550
   30ANI     H7  960   0.070   1.015   3.542  1.2374 -0.7515  1.5071
   30ANI     H8  961   0.041   1.253   3.591  1.1151  1.1938  2.3294
   31ANI     C1  962   2.174   2.641   0.551  0.1952  0.1243 -0.1244
   31ANI     O1  963   2.118   2.752   0.472  1.1595  0.2940  0.6200
   31ANI     C2  964   2.141   2.890   0.500 -0.1358 -0.4288 -0.2877
   31ANI     C3  965   2.072   2.993   0.435  0.9305  0.3603  0.9107
   31ANI     C4  966   2.078   3.126   0.485 -0.5821  0.4174 -0.0383
   31ANI     C5  967   2.168   3.160   0.587 -0.2355 -0.0514 -0.3578
   31ANI     C6  968   2.248   3.060   0.649  0.3772 -0.6008 -0.0177
   31ANI     C7  969   2.232   2.925   0.606 -0.1510 -0.4822  0.8019
   31ANI     H1  970   2.284   2.641   0.550  0.2182 -2.3321 -1.8549
   31ANI     H2  971   2.146   2.652   0.657 -0.5816  0.8184 -0.3920
   31ANI     H3  972   2.143   2.541   0.517  0.1314 -0.0416  0.4224
   31ANI     H4  973   2.005   2.958   0.357  0.1633  1.1584  1.2032
   31ANI     H5  974   2.020   3.202   0.434  2.3410  1.5637 -1.7485
   31ANI     H6  975   2.179   3.258   0.631 -0.6954  0.3247 -1.0816
   31ANI     H7  976   2.314   3.082   0.733  0.8571  0.3833 -0.6489
   31ANI     H8  977   2.282   2.851   0.667  2.1864  1.6766  1.5658
   32ANI     C1  978   1.012   1.440   3.708 -0.1855  0.5569  0.1703
   32ANI     O1  979   0.900   1.512   3.761  0.8086 -0.0219 -0.2559
   32ANI     C2  980   0.776   1.465   3.783 -0.4259  0.2873 -0.1967
   32ANI     C3  981   0.682   1.559   3.833  0.0073 -0.2750  0.2628
   32ANI     C4  982   0.548   1.510   3.861 -0.3588 -0.9020  0.1336
   32ANI     C5  983   0.513   1.373   3.843 -0.9872 -0.0170  0.1535
   32ANI     C6  984   0.604   1.289   3.791 -0.2725  0.0743  0.3059
   32ANI     C7  985   0.740   1.331   3.763  0.5152  0.2959 -0.4553
   32ANI     H1  986   0.978   1.394   3.614 -0.4458  1.5114 -0.2020
   32ANI     H2  987   1.094   1.512   3.696  0.0323  0.8916  3.3523
   32ANI     H3  988   1.038   1.352   3.769  0.6131 -0.6887 -1.8665
   32ANI     H4  989   0.699   1.666   3.841  1.9575 -0.3893 -1.6632
   32ANI     H5  990   0.474   1.577   3.905 -0.4821 -0.1260 -1.2480
   32ANI     H6  991   0.411   1.346   3.867 -0.8573 -1.0073 -0.3914
   32ANI     H7  992   0.581   1.185   3.770 -0.1964 -0.2284  1.7090
   32ANI     H8  993   0.809   1.258   3.721 -1.7543 -3.0927  1.4933
   33ANI     C1  994   2.119   2.526   2.771 -0.0549 -0.2399 -0.1733
   33ANI     O1  995   2.205   2.639   2.806  0.1335  0.0274  0.4148
   33ANI     C2  996   2.209   2.691   2.934  0.1347 -0.4608  0.0951
   33ANI     C3  997   2.132   2.653   3.039 -0.4748 -0.4967 -0.4770
   33ANI     C4  998   2.138   2.705   3.166  0.6964 -0.0982 -0.0236
   33ANI     C5  999   2.232   2.812   3.187 -0.1995  0.1528  0.1325
   33ANI     C6 1000   2.313   2.850   3.079  0.6189 -0.9912 -0.7907
   33ANI     C7 1001   2.304   2.793   2.952  0.8563  0.2399  0.4360
   33ANI     H1 1002   2.015   2.526   2.805  0.2745 -1.0848  0.8906
   33ANI     H2 1003   2.117   2.498   2.666 -0.6759  3.1418 -1.1211
   33ANI     H3 1004   2.175   2.445   2.820  0.0630 -0.4381 -0.6370
   33ANI     H4 1005   2.053   2.583   3.013 -2.6594  1.9512 -0.6213
   33ANI     H5 1006   2.069   2.675   3.245  0.0310  0.4979 -0.3794
   33ANI     H6 1007   2.247   2.865   3.281  0.0149  1.0640 -0.4032
   33ANI     H7 1008   2.377   2.938   3.083  0.9176 -1.2569  0.6407
   33ANI     H8 1009   2.376   2.816   2.874  0.5946 -0.6902 -0.0764
   34ANI     C1 1010   0.033   0.557   3.325 -0.0562 -0.7723 -0.1586
   34ANI     O1 1011  -0.011   0.639   3.437  0.0774 -0.0242 -0.7626
   34ANI     C2 1012  -0.069   0.595   3.555  0.5265 -0.0240 -0.0842
   34ANI     C3 1013  -0.098   0.463   3.582  0.1017 -0.2154  0.5805
   34ANI     C4 1014  -0.160   0.418   3.705 -0.5586 -0.5047 -0.7399
   34ANI     C5 1015  -0.186   0.511   3.801  0.1668 -0.0033  0.0505
   34ANI     C6 1016  -0.163   0.647   3.775 -0.3855  0.0577 -0.2812
   34ANI     C7 1017  -0.103   0.685   3.655  0.1472  0.8748  0.3095
   34ANI     H1 1018  -0.055   0.499   3.293  0.2989 -0.2482 -2.1554
   34ANI     H2 1019   0.068   0.618   3.241  0.6188 -0.4571  0.3498
   34ANI     H3 1020   0.121   0.496   3.350  2.2614  3.0617  1.4535
   34ANI     H4 1021  -0.067   0.392   3.506  1.1946  0.3976  0.4456
   34ANI     H5 1022  -0.195   0.316   3.720 -1.6521  0.1674  1.5003
   34ANI     H6 1023  -0.229   0.478   3.895  0.9317 -2.9306 -0.5936
   34ANI     H7 1024  -0.190   0.726   3.844 -3.0476 -0.7560 -0.3197
   34ANI     H8 1025  -0.080   0.790   3.637  1.7955  0.5471  0.3818
   35ANI     C1 1026   2.344   0.441   0.039  0.0032  0.9631 -0.4902
   35ANI     O1 1027   2.261   0.358   0.119  0.3539  0.4393  0.0515
   35ANI     C2 1028   2.308   0.251   0.181 -0.7522  0.5427  0.6968
   35ANI     C3 1029   2.444   0.203   0.172 -0.3443 -0.2936  0.0609
   35ANI     C4 1030   2.481   0.097   0.252 -0.3153 -0.3157 -0.1862
   35ANI     C5 1031   2.391   0.042   0.340 -0.1460  0.3567 -0.5316
   35ANI     C6 1032   2.262   0.092   0.353  0.0882 -0.2417  0.7480
   35ANI     C7 1033   2.214   0.187   0.269  0.1332 -0.2664 -1.0652
   35ANI     H1 1034   2.295   0.537   0.015 -1.0086  0.2017 -1.5831
   35ANI     H2 1035   2.442   0.452   0.086 -0.2282  1.0868 -0.0332
   35ANI     H3 1036   2.362   0.396  -0.060  0.6075 -0.8485  0.4370
   35ANI     H4 1037   2.518   0.250   0.107 -0.5380 -0.1679 -0.0702
   35ANI     H5 1038   2.585   0.068   0.243 -0.2293 -0.1900  0.3733
   35ANI     H6 1039   2.423  -0.034   0.412  3.1001  1.9513 -0.2062
   35ANI     H7 1040   2.199   0.051   0.431  1.1278  0.9714  2.2458
   35ANI     H8 1041   2.110   0.217   0.278  0.2191 -0.0770 -0.6874
   36ANI     C1 1042   0.387   3.044   2.694  0.3301 -0.8008 -0.3595
   36ANI     O1 1043   0.289   3.140   2.735  0.0662 -0.3256  0.3609
   36ANI     C2 1044   0.254   3.157   2.869  0.2770 -0.4790 -0.2640
   36ANI     C3 1045   0.131   3.222   2.894  0.3059 -0.2447 -0.1916
   36ANI     C4 1046   0.100   3.248   3.028  0.2098  0.2885  0.3767
   36ANI     C5 1047   0.186   3.211   3.135  0.2552  0.1972 -0.1075
   36ANI     C6 1048   0.311   3.148   3.111  0.3464 -0.2597  0.1773
   36ANI     C7 1049   0.338   3.120   2.975 -0.0274  0.0162 -0.0778
   36ANI     H1 1050   0.379   3.027   2.586  1.8184  1.0803 -0.7884
   36ANI     H2 1051   0.491   3.067   2.720  0.4840 -1.2059 -0.6166
   36ANI     H3 1052   0.359   2.945   2.734  0.2359  0.2471  2.2944
   36ANI     H4 1053   0.072   3.256   2.810  1.1686  0.3003 -0.5803
   36ANI     H5 1054   0.006   3.292   3.060  0.3557  0.0370  1.1533
   36ANI     H6 1055   0.155   3.207   3.239  0.3723 -1.3957 -0.1156
   36ANI     H7 1056   0.374   3.108   3.190  1.8170 -0.2032 -0.9543
   36ANI     H8 1057   0.427   3.065   2.948 -0.6122 -0.8975 -0.1768
   37ANI     C1 1058   1.584   0.402   2.258  0.1785 -0.4268 -0.4191
   37ANI     O1 1059   1.547   0.270   2.300  0.1499  0.0864 -0.4280
   37ANI     C2 1060   1.636   0.165   2.289 -0.3804 -0.6228  0.1286
   37ANI     C3 1061   1.586   0.031   2.307 -0.0856  0.7902 -0.1154
   37ANI     C4 1062   1.681  -0.072   2.289 -0.3154  0.3522 -0.3203
   37ANI     C5 1063   1.814  -0.049   2.258  0.0506 -0.0811  0.1888
   37ANI     C6 1064   1.859   0.084   2.247  0.0995  0.1141  1.1893
   37ANI     C7 1065   1.767   0.191   2.257 -0.1326 -0.2998  0.2917
   37ANI     H1 1066   1.499   0.471   2.248  0.4985 -0.2022 -1.6620
   37ANI     H2 1067   1.655   0.444   2.330  0.9670 -0.5245 -1.1342
   37ANI     H3 1068   1.634   0.400   2.161  1.4706 -1.0170  0.2460
   37ANI     H4 1069   1.488   0.013   2.349  1.4455 -0.1891  3.1871
   37ANI     H5 1070   1.647  -0.175   2.295 -1.0198  0.4727 -2.0881
   37ANI     H6 1071   1.881  -0.132   2.244  2.4330  1.9860 -1.0893
   37ANI     H7 1072   1.961   0.102   2.216 -0.1666 -2.6097 -1.4402
   37ANI     H8 1073   1.802   0.293   2.246 -1.8595  0.1700 -1.0851
   38ANI     C1 1074   3.344   1.799   0.324 -0.1107 -0.0776  0.9041
   38ANI     O1 1075   3.461   1.766   0.412 -0.0747  0.0345 -0.2885
   38ANI     C2 1076   3.443   1.736   0.546 -0.7704 -1.1576  0.1064
   38ANI     C3 1077   3.561   1.719   0.622  0.1034  0.7075  0.4110
   38ANI     C4 1078   3.557   1.699   0.762 -0.1684 -0.3186  0.2213
   38ANI     C5 1079   3.434   1.696   0.828 -0.5291 -0.3936  0.3336
   38ANI     C6 1080   3.315   1.726   0.760 -0.1748  0.0335 -0.1037
   38ANI     C7 1081   3.317   1.737   0.621 -0.7749 -0.8867  0.2467
   38ANI     H1 1082   3.306   1.896   0.356  2.5975  0.9484  1.1405
   38ANI     H2 1083   3.380   1.809   0.221 -2.3566  0.6895  0.1662
   38ANI     H3 1084   3.261   1.727   0.323  0.0451 -0.2544 -0.9113
   38ANI     H4 1085   3.649   1.710   0.560 -0.0287 -1.7687  0.5281
   38ANI     H5 1086   3.647   1.667   0.815 -0.2322 -2.2016 -0.7457
   38ANI     H6 1087   3.426   1.671   0.933 -2.2125 -1.2091  0.0353
   38ANI     H7 1088   3.220   1.709   0.810 -0.7017 -1.5547 -1.6121
   38ANI     H8 1089   3.232   1.771   0.562  1.2163  1.4319 -1.4174
   39ANI     C1 1090   0.961   1.381   0.272 -1.1611 -0.4498  1.2374
   39ANI     O1 1091   0.958   1.311   0.398 -0.0525  0.3375 -0.2665
   39ANI     C2 1092   0.850   1.279   0.461 -0.2868 -0.3984  0.1095
   39ANI     C3 1093   0.866   1.227   0.590  0.0320 -0.6136 -0.4898
   39ANI     C4 1094   0.750   1.192   0.666  0.5181  0.0930 -0.0261
   39ANI     C5 1095   0.625   1.193   0.614 -0.1618  0.6831  0.3708
   39ANI     C6 1096   0.602   1.252   0.487 -0.1925  0.0595  0.1080
   39ANI     C7 1097   0.717   1.295   0.417  0.0765 -0.4430  0.4778
   39ANI     H1 1098   1.065   1.401   0.243 -1.8764  0.2665 -0.9211
   39ANI     H2 1099   0.921   1.318   0.192  1.4248  0.2808 -0.6943
   39ANI     H3 1100   0.907   1.476   0.280  1.4231  1.2113 -0.2160
   39ANI     H4 1101   0.960   1.218   0.644 -0.9161 -0.8168  1.1563
   39ANI     H5 1102   0.756   1.150   0.766  0.3479  0.7144  0.2458
   39ANI     H6 1103   0.540   1.153   0.669 -1.1663  0.0331 -1.5562
   39ANI     H7 1104   0.506   1.267   0.439 -0.0610  0.9866  0.1173
   39ANI     H8 1105   0.697   1.338   0.320 -0.3401 -1.2050  0.2224
   40ANI     C1 1106   2.880   3.066   0.753 -0.4950  0.7972  0.6058
   40ANI     O1 1107   2.891   2.949   0.671  0.0267  0.6918 -0.3333
   40ANI     C2 1108   3.002   2.892   0.599  0.3358  0.6323  0.4759
   40ANI     C3 1109   3.128   2.957   0.602 -0.2156  0.1118  0.2215
   40ANI     C4 1110   3.240   2.906   0.539  0.0951  0.2099 -0.3328
   40ANI     C5 1111   3.234   2.788   0.460 -0.8430  0.2140 -0.6454
   40ANI     C6 1112   3.107   2.726   0.447 -0.1415 -0.6831 -1.0891
   40ANI     C7 1113   2.993   2.770   0.527  0.1063  0.1568  0.1845
   40ANI     H1 1114   2.927   3.158   0.716 -2.1392  0.7808 -1.5691
   40ANI     H2 1115   2.773   3.085   0.760 -0.7703 -0.6258  0.4340
   40ANI     H3 1116   2.904   3.028   0.853  0.6414  2.3347  0.9450
   40ANI     H4 1117   3.150   3.036   0.672 -0.6644  1.1797 -0.8208
   40ANI     H5 1118   3.332   2.959   0.559  0.6171 -0.8326  0.0966
   40ANI     H6 1119   3.324   2.740   0.422 -1.9413 -1.7928 -0.7606
   40ANI     H7 1120   3.107   2.636   0.386 -0.0870 -0.5843 -1.2337
   40ANI     H8 1121   2.898   2.719   0.513  0.6867 -0.6248 -0.8630
   41ANI     C1 1122   2.531   2.341   0.481 -0.0134 -0.0399 -0.6175
   41ANI     O1 1123   2.478   2.436   0.385  0.0916 -0.0513 -0.5273
   41ANI     C2 1124   2.506   2.568   0.400  0.2934  0.3822  0.4279
   41ANI     C3 1125   2.558   2.626   0.521 -0.2415  1.6352  0.2424
   41ANI     C4 1126   2.579   2.757   0.540  0.1426  0.0900  0.5918
   41ANI     C5 1127   2.550   2.843   0.437 -0.1897 -0.2488  0.1580
   41ANI     C6 1128   2.491   2.791   0.313 -0.8251 -0.7562  0.6074
   41ANI     C7 1129   2.472   2.655   0.292 -0.3605 -0.6907  0.6417
   41ANI     H1 1130   2.513   2.355   0.588  1.2481 -0.1916 -0.3846
   41ANI     H2 1131   2.506   2.239   0.449  0.2101 -0.0323 -0.8148
   41ANI     H3 1132   2.640   2.334   0.471 -0.0084  0.9609 -1.2867
   41ANI     H4 1133   2.593   2.564   0.603 -0.6669  2.0516  0.7373
   41ANI     H5 1134   2.613   2.794   0.637  2.0213 -0.8636  0.3256
   41ANI     H6 1135   2.569   2.950   0.448 -1.4330  0.1888 -1.7177
   41ANI     H7 1136   2.467   2.855   0.229  1.7711 -2.6190 -1.6571
   41ANI     H8 1137   2.438   2.610   0.199 -1.6833  1.0059  0.2888
   42ANI     C1 1138   3.047   0.349   2.631 -0.2226 -0.0919 -0.2509
   42ANI     O1 1139   3.070   0.394   2.499  0.0591  0.3060  0.1044
   42ANI     C2 1140   3.169   0.474   2.463  0.2059  0.2559 -0.3211
   42ANI     C3 1141   3.265   0.516   2.547  1.0003 -0.3099  0.6876
   42ANI     C4 1142   3.386   0.580   2.500  0.7255 -0.7946  0.0676
   42ANI     C5 1143   3.400   0.607   2.361 -0.0447 -0.4248 -0.6981
   42ANI     C6 1144   3.296   0.574   2.274  0.0954 -0.0749  0.1168
   42ANI     C7 1145   3.179   0.512   2.324 -0.2851 -0.1062  0.0723
   42ANI     H1 1146   3.021   0.430   2.702 -0.6246 -0.1640 -0.3136
   42ANI     H2 1147   2.959   0.284   2.625 -0.2804  0.0310 -0.7885
   42ANI     H3 1148   3.133   0.296   2.672 -1.1743 -2.0795 -0.7963
   42ANI     H4 1149   3.255   0.485   2.651 -1.0330  0.7751  0.8463
   42ANI     H5 1150   3.460   0.616   2.571 -0.4806  1.2175  0.3405
   42ANI     H6 1151   3.494   0.652   2.328  0.4676  0.3503  1.7326
   42ANI     H7 1152   3.329   0.573   2.170 -1.3690  0.3461 -0.3672
   42ANI     H8 1153   3.096   0.474   2.264 -0.5807  1.9312 -0.8390
   43ANI     C1 1154   0.138   1.382   0.822  0.0751  0.3871  0.9151
   43ANI     O1 1155   0.055   1.268   0.774 -0.1158 -0.6298 -0.8695
   43ANI     C2 1156  -0.029   1.286   0.667  0.3995  0.3094  0.2240
   43ANI     C3 1157  -0.040   1.405   0.593 -0.0392 -0.1518 -0.1593
   43ANI     C4 1158  -0.136   1.416   0.489 -0.4810  0.3282 -0.0155
   43ANI     C5 1159  -0.217   1.307   0.451  0.3906 -1.0162 -1.2043
   43ANI     C6 1160  -0.209   1.187   0.528 -0.8018  0.0464 -0.7274
   43ANI     C7 1161  -0.121   1.184   0.642 -0.3958 -0.4065  0.1605
   43ANI     H1 1162   0.211   1.340   0.893 -1.6821 -0.9607  1.9501
   43ANI     H2 1163   0.200   1.427   0.744  0.1514  1.9542  1.8440
   43ANI     H3 1164   0.082   1.457   0.880 -1.1444  1.7256 -1.8953
   43ANI     H4 1165   0.024   1.489   0.619 -0.6921 -0.1026  1.4020
   43ANI     H5 1166  -0.137   1.507   0.430  0.0114 -0.0184 -0.5558
   43ANI     H6 1167  -0.288   1.302   0.368  1.7719 -1.9676 -2.3524
   43ANI     H7 1168  -0.263   1.098   0.499 -0.5760 -0.4839  0.4502
   43ANI     H8 1169  -0.109   1.096   0.705 -0.4931  0.9018  2.0310
   44ANI     C1 1170   2.038   0.102   2.963  0.2749 -0.1484 -0.3258
   44ANI     O1 1171   2.027   0.115   3.107  0.3537 -0.0225  0.6880
   44ANI     C2 1172   2.036   0.005   3.192  0.3373  0.3131 -0.2615
   44ANI     C3 1173   2.019   0.031   3.328  0.0476 -1.0806 -0.1221
   44ANI     C4 1174   2.034  -0.072   3.426 -0.0110 -0.5106 -0.1713
   44ANI     C5 1175   2.069  -0.202   3.385  0.0092 -0.4086 -0.3608
   44ANI     C6 1176   2.076  -0.227   3.249  0.4955  0.7373 -0.3135
   44ANI     C7 1177   2.059  -0.129   3.151  0.2834 -0.5051 -0.0541
   44ANI     H1 1178   1.956   0.041   2.924  1.8790 -1.7441 -1.2545
   44ANI     H2 1179   2.032   0.204   2.923  0.9370 -0.4345 -1.1495
   44ANI     H3 1180   2.134   0.055   2.941 -0.3008 -0.8421 -1.3947
   44ANI     H4 1181   1.999   0.134   3.354  1.9145 -0.7794  0.2152
   44ANI     H5 1182   2.029  -0.041   3.530 -1.9314  3.5526 -1.3696
   44ANI     H6 1183   2.080  -0.274   3.466  0.9244 -0.6222 -0.6645
   44ANI     H7 1184   2.109  -0.327   3.223 -0.7438  0.3727 -0.5568
   44ANI     H8 1185   2.068  -0.152   3.045 -0.8152 -0.2796 -0.1942
   45ANI     C1 1186   0.855   3.404   3.236 -0.8860 -0.1428 -0.1372
   45ANI     O1 1187   0.957   3.308   3.236  0.1206 -0.1723  0.6206
   45ANI     C2 1188   1.064   3.330   3.312 -0.0415 -0.2066 -0.2186
   45ANI     C3 1189   1.079   3.453   3.388  0.2960 -0.3119  0.3232
   45ANI     C4 1190   1.196   3.472   3.469  0.3193 -0.2360  0.3238
   45ANI     C5 1191   1.298   3.374   3.467 -0.0267 -0.5156  0.6203
   45ANI     C6 1192   1.279   3.253   3.403  0.5760  0.2862 -0.3232
   45ANI     C7 1193   1.164   3.231   3.321 -0.2373 -0.5580  0.6136
   45ANI     H1 1194   0.774   3.379   3.167 -1.0032  0.5792 -0.2616
   45ANI     H2 1195   0.814   3.428   3.335 -1.7842  0.0481 -0.5526
   45ANI     H3 1196   0.907   3.494   3.202 -0.5352 -0.2135  0.2139
   45ANI     H4 1197   1.000   3.526   3.403  0.5567  0.2450 -0.9402
   45ANI     H5 1198   1.206   3.564   3.527  2.0168 -0.8566  1.0302
   45ANI     H6 1199   1.390   3.386   3.524  0.6623  0.3804 -0.6387
   45ANI     H7 1200   1.354   3.175   3.409  0.0868 -0.1397  0.3938
   45ANI     H8 1201   1.163   3.136   3.268  1.2676  0.1271 -0.7187
   46ANI     C1 1202   1.264   1.103   1.173 -0.3545  0.1445  0.2866
   46ANI     O1 1203   1.399   1.076   1.150  0.2834  0.3972  0.7168
   46ANI     C2 1204   1.484   1.180   1.170 -0.0055  1.1082 -0.2491
   46ANI     C3 1205   1.454   1.315   1.127  0.1672 -0.3021 -0.3504
   46ANI     C4 1206   1.539   1.422   1.166 -0.0242 -0.6569 -0.4143
   46ANI     C5 1207   1.654   1.399   1.240  0.5161  0.2282 -0.2841
   46ANI     C6 1208   1.695   1.263   1.262  0.0390 -0.1633 -0.6823
   46ANI     C7 1209   1.607   1.155   1.233 -1.0244 -0.1148  0.4127
   46ANI     H1 1210   1.209   1.009   1.161 -0.4103  0.2468 -0.2863
   46ANI     H2 1211   1.244   1.139   1.275 -1.1077  1.1219 -0.1935
   46ANI     H3 1212   1.225   1.172   1.097  0.8638 -0.8264 -1.2158
   46ANI     H4 1213   1.371   1.333   1.059  1.1081  1.9654 -0.9203
   46ANI     H5 1214   1.514   1.525   1.141 -0.8363 -0.3149  1.7235
   46ANI     H6 1215   1.716   1.484   1.264  1.8048 -0.8933  0.3776
   46ANI     H7 1216   1.789   1.245   1.314  0.2775 -0.7967 -1.3184
   46ANI     H8 1217   1.636   1.052   1.254  0.9071  0.4687  0.7217
   47ANI     C1 1218   1.763   0.207   2.647 -0.0736  0.7387 -0.2432
   47ANI     O1 1219   1.886   0.244   2.584 -0.4864 -0.3211 -0.6161
   47ANI     C2 1220   1.995   0.157   2.600 -0.2973  0.3445  0.4199
   47ANI     C3 1221   1.976   0.011   2.603  0.0364 -0.2852 -0.8910
   47ANI     C4 1222   2.088  -0.067   2.632  0.1804  0.9936  0.4182
   47ANI     C5 1223   2.212  -0.004   2.649 -0.1274 -0.0964  0.0480
   47ANI     C6 1224   2.229   0.135   2.636 -0.4532  0.9343 -0.1012
   47ANI     C7 1225   2.119   0.215   2.611  0.3765  0.1861  1.0001
   47ANI     H1 1226   1.685   0.283   2.634 -1.0661 -0.1080  0.6095
   47ANI     H2 1227   1.717   0.117   2.603 -0.4525  0.8604 -0.1019
   47ANI     H3 1228   1.779   0.182   2.752 -0.9221  1.1868 -0.0018
   47ANI     H4 1229   1.876  -0.030   2.593  0.3387 -0.7671 -2.0594
   47ANI     H5 1230   2.064  -0.173   2.645  1.2110  0.6507 -0.4159
   47ANI     H6 1231   2.298  -0.062   2.680  1.5469  1.7654 -0.9913
   47ANI     H7 1232   2.327   0.179   2.653  0.3240 -0.8220  0.0487
   47ANI     H8 1233   2.118   0.324   2.613  0.6925  0.3339 -2.6319
   48ANI     C1 1234   3.282   0.834   3.058  0.2727  0.5870 -0.1992
   48ANI     O1 1235   3.211   0.934   2.983  0.0354  0.3512 -0.1722
   48ANI     C2 1236   3.121   0.896   2.894  0.2828  0.2194 -0.0039
   48ANI     C3 1237   2.999   0.967   2.893  0.4115  0.2930 -0.3799
   48ANI     C4 1238   2.897   0.946   2.793 -0.3519  0.4128 -0.2002
   48ANI     C5 1239   2.926   0.848   2.693 -0.1318 -0.6886 -0.0921
   48ANI     C6 1240   3.048   0.774   2.703 -0.5220 -0.1051  0.3458
   48ANI     C7 1241   3.145   0.797   2.795 -0.3603 -0.2780  0.1627
   48ANI     H1 1242   3.377   0.806   3.012 -0.0023 -0.2004 -0.2938
   48ANI     H2 1243   3.307   0.872   3.158  0.3643  0.4025 -0.1513
   48ANI     H3 1244   3.215   0.749   3.079 -0.2965  0.6940 -1.5334
   48ANI     H4 1245   2.974   1.042   2.967 -1.3475  0.5494 -1.2262
   48ANI     H5 1246   2.811   1.011   2.796 -1.0382 -0.5011  0.3525
   48ANI     H6 1247   2.862   0.814   2.612 -1.6857 -2.5416  1.8360
   48ANI     H7 1248   3.070   0.703   2.625  1.4359 -1.5884  2.1800
   48ANI     H8 1249   3.241   0.753   2.772  0.2349  2.0303 -1.8645
   49ANI     C1 1250   3.151   0.618   0.360 -0.1136 -0.3554  0.4354
   49ANI     O1 1251   3.172   0.477   0.384  0.6632 -0.0548 -0.3734
   49ANI     C2 1252   3.094   0.397   0.469 -0.5954 -0.8992  0.4604
   49ANI     C3 1253   3.125   0.261   0.481 -0.4619  0.0281  0.3107
   49ANI     C4 1254   3.052   0.179   0.565  0.0663  0.4457 -0.4367
   49ANI     C5 1255   2.953   0.234   0.642  0.2936 -0.5814  0.3035
   49ANI     C6 1256   2.922   0.373   0.632 -0.7944  0.0294  0.0514
   49ANI     C7 1257   2.990   0.452   0.540  0.1668  0.1109 -0.3386
   49ANI     H1 1258   3.220   0.651   0.281  0.8259 -1.4004  0.8038
   49ANI     H2 1259   3.047   0.640   0.331  0.5480  0.9196 -1.0437
   49ANI     H3 1260   3.169   0.681   0.448 -0.1575 -1.6813  1.4029
   49ANI     H4 1261   3.191   0.217   0.406 -1.8233  0.9320 -1.4530
   49ANI     H5 1262   3.069   0.072   0.565  0.7119  0.5169  1.5370
   49ANI     H6 1263   2.889   0.174   0.706  0.0575  0.2349  0.8403
   49ANI     H7 1264   2.834   0.420   0.676 -1.2553  0.8891 -1.7314
   49ANI     H8 1265   2.958   0.556   0.533  1.2342  0.5033  0.4662
   50ANI     C1 1266   1.424   3.018   0.335 -0.0691 -0.5376 -0.1844
   50ANI     O1 1267   1.312   3.025   0.421 -0.2190  0.5769  0.0365
   50ANI     C2 1268   1.308   2.966   0.542 -0.0557 -0.6783 -0.1238
   50ANI     C3 1269   1.191   2.972   0.607  0.2392 -0.2561  0.2508
   50ANI     C4 1270   1.179   2.925   0.742 -0.4359  0.0152 -0.2251
   50ANI     C5 1271   1.287   2.871   0.800 -0.2721  0.1870 -1.1152
   50ANI     C6 1272   1.402   2.857   0.730 -0.1657 -0.2192 -0.7325
   50ANI     C7 1273   1.415   2.901   0.603 -1.0386  0.0634  0.3282
   50ANI     H1 1274   1.405   3.088   0.253 -0.8446 -0.2694  0.2185
   50ANI     H2 1275   1.518   3.039   0.388  0.1806  3.1528 -1.9262
   50ANI     H3 1276   1.431   2.914   0.300 -1.6457 -0.1869 -1.5967
   50ANI     H4 1277   1.104   3.013   0.556  1.2737 -0.2266 -1.5346
   50ANI     H5 1278   1.083   2.927   0.792  0.9577 -0.5574  2.5478
   50ANI     H6 1279   1.285   2.819   0.895 -1.3649  1.3344 -0.4836
   50ANI     H7 1280   1.484   2.813   0.786 -1.4599  1.7419  2.9181
   50ANI     H8 1281   1.515   2.885   0.563 -1.6253 -1.4277 -0.5872
   51ANI     C1 1282   2.496   1.821   2.739  0.3112  0.1408  0.2632
   51ANI     O1 1283   2.624   1.884   2.705  0.5688  0.2721  0.2607
   51ANI     C2 1284   2.634   2.020   2.696  0.0252 -0.7295  0.2408
   51ANI     C3 1285   2.742   2.074   2.628 -0.0087  0.0521 -0.6481
   51ANI     C4 1286   2.756   2.209   2.604  0.1957 -0.0204 -0.5277
   51ANI     C5 1287   2.656   2.299   2.658 -0.8535  0.1777  0.0316
   51ANI     C6 1288   2.547   2.244   2.728  0.4703 -0.3472  0.2798
   51ANI     C7 1289   2.535   2.109   2.743  0.1446 -0.3786 -0.4195
   51ANI     H1 1290   2.490   1.713   2.720 -1.5883  0.7013 -2.4525
   51ANI     H2 1291   2.488   1.828   2.849  2.7247  2.2325  0.3477
   51ANI     H3 1292   2.403   1.856   2.694 -1.7650 -1.4616  3.0918
   51ANI     H4 1293   2.819   2.002   2.603  1.1940  0.7293  0.9682
   51ANI     H5 1294   2.844   2.256   2.562  0.0848  0.0410 -0.6901
   51ANI     H6 1295   2.671   2.406   2.644  1.3890  0.0439  1.2212
   51ANI     H7 1296   2.469   2.313   2.758 -0.0884 -0.9344  0.1974
   51ANI     H8 1297   2.449   2.077   2.801  0.4343  0.4181  0.4706
   52ANI     C1 1298   1.876   3.084   3.710 -0.1520 -0.6424 -0.5979
   52ANI     O1 1299   1.746   3.010   3.726  0.0257  0.2645  0.1223
   52ANI     C2 1300   1.629   3.074   3.756  0.4508 -0.1186  0.1933
   52ANI     C3 1301   1.618   3.197   3.824  0.0559 -0.4920 -0.3580
   52ANI     C4 1302   1.493   3.257   3.850 -0.1148 -0.5971 -0.1388
   52ANI     C5 1303   1.383   3.189   3.793 -0.1807 -0.6115 -0.3195
   52ANI     C6 1304   1.395   3.073   3.718 -0.5627  0.2658 -1.0152
   52ANI     C7 1305   1.517   3.013   3.697  0.4551 -0.2598  0.0854
   52ANI     H1 1306   1.866   3.156   3.627 -0.6247  0.4141  0.3676
   52ANI     H2 1307   1.895   3.147   3.797  0.6312 -0.6632 -0.7489
   52ANI     H3 1308   1.961   3.026   3.672  0.8145  0.0163  0.5468
   52ANI     H4 1309   1.700   3.252   3.871 -0.6479 -1.2003  1.7870
   52ANI     H5 1310   1.494   3.343   3.917  0.4091 -0.3205 -0.5038
   52ANI     H6 1311   1.283   3.230   3.798 -1.1387 -3.0854  2.0143
   52ANI     H7 1312   1.303   3.033   3.677 -0.3810 -0.8258 -0.3653
   52ANI     H8 1313   1.518   2.919   3.642 -3.8084  0.7509 -1.9562
   53ANI     C1 1314   0.493   1.553   0.407 -0.5805 -0.4109  0.5181
   53ANI     O1 1315   0.519   1.696   0.422 -0.5988 -0.2583 -0.0364
   53ANI     C2 1316   0.623   1.740   0.504 -0.8768 -0.3068  0.8290
   53ANI     C3 1317   0.732   1.660   0.559 -0.1830  0.1962 -0.7184
   53ANI     C4 1318   0.825   1.721   0.640 -0.2426  0.2826  0.1428
   53ANI     C5 1319   0.817   1.854   0.662 -0.2041 -0.2265  0.0928
   53ANI     C6 1320   0.717   1.935   0.616  0.7500 -0.7330 -0.0538
   53ANI     C7 1321   0.623   1.882   0.525 -0.5154  0.2883  0.0965
   53ANI     H1 1322   0.577   1.508   0.353 -0.0461  1.8645 -0.6448
   53ANI     H2 1323   0.483   1.514   0.509  1.5714  0.0563  0.9357
   53ANI     H3 1324   0.394   1.543   0.361  0.9044 -0.6719 -2.7736
   53ANI     H4 1325   0.740   1.554   0.539  3.4912  0.0246  1.2495
   53ANI     H5 1326   0.896   1.657   0.690  0.5692  1.0858  0.0332
   53ANI     H6 1327   0.903   1.901   0.710  0.9592 -0.7772 -1.3886
   53ANI     H7 1328   0.731   2.038   0.647  2.3981 -0.6905 -0.8674
   53ANI     H8 1329   0.550   1.948   0.478 -0.3509  0.2583 -0.2038
   54ANI     C1 1330   3.273   0.213   2.242  0.5288 -0.7367  0.9062
   54ANI     O1 1331   3.373   0.113   2.196 -0.1441 -0.0392 -0.0415
   54ANI     C2 1332   3.504   0.148   2.219  0.4607  0.1124 -0.6545
   54ANI     C3 1333   3.597   0.046   2.217 -0.0576  0.5954 -0.0617
   54ANI     C4 1334   3.736   0.072   2.235  0.1772 -0.2562  0.1566
   54ANI     C5 1335   3.784   0.209   2.263  0.4871  0.6372  0.6068
   54ANI     C6 1336   3.681   0.302   2.277  0.1674  0.2097  0.3086
   54ANI     C7 1337   3.551   0.275   2.250  0.4447  0.2159 -0.4864
   54ANI     H1 1338   3.173   0.168   2.241  0.3042 -0.2676 -1.1954
   54ANI     H2 1339   3.298   0.255   2.340 -1.0079  0.8298  0.6559
   54ANI     H3 1340   3.269   0.300   2.175 -1.2736 -2.6181 -1.5233
   54ANI     H4 1341   3.559  -0.054   2.199  1.9780  0.3754 -3.7738
   54ANI     H5 1342   3.806  -0.011   2.234  0.4597 -0.0253 -1.2638
   54ANI     H6 1343   3.891   0.225   2.265  0.5279  0.3551  0.9834
   54ANI     H7 1344   3.722   0.400   2.300  3.0794 -0.7645 -0.5841
   54ANI     H8 1345   3.482   0.356   2.273 -0.6581 -0.3111 -1.8883
   55ANI     C1 1346   0.700   1.972   2.647 -0.3551 -0.5284 -0.0072
   55ANI     O1 1347   0.803   2.054   2.590  0.1569  0.2720  0.2784
   55ANI     C2 1348   0.775   2.190   2.581 -0.1514  0.4757  0.2739
   55ANI     C3 1349   0.889   2.279   2.575  0.6248  0.0842 -0.2986
   55ANI     C4 1350   0.868   2.420   2.586 -0.4863 -0.1347 -0.2763
   55ANI     C5 1351   0.733   2.464   2.598 -0.1778 -0.0014  0.3034
   55ANI     C6 1352   0.624   2.382   2.593  0.4096 -0.3920 -0.4642
   55ANI     C7 1353   0.646   2.242   2.590 -0.5416  0.6304 -0.2982
   55ANI     H1 1354   0.620   1.954   2.573 -0.0449  1.7453 -0.9263
   55ANI     H2 1355   0.747   1.878   2.678 -2.5748 -1.6061  0.2105
   55ANI     H3 1356   0.653   2.020   2.734 -0.8339  0.2001 -0.6592
   55ANI     H4 1357   0.988   2.239   2.558  1.6962  1.1489  2.9696
   55ANI     H5 1358   0.952   2.487   2.596  1.7260 -2.8260 -0.2318
   55ANI     H6 1359   0.711   2.569   2.613  2.4072  0.2903  2.4031
   55ANI     H7 1360   0.522   2.419   2.596  0.9035  0.8506  1.7014
   55ANI     H8 1361   0.560   2.177   2.578  0.3143 -1.1555  2.6249
   56ANI     C1 1362   2.232   3.406   3.796 -0.0015  0.7038  0.3831
   56ANI     O1 1363   2.187   3.289   3.865 -0.3459 -0.3109 -0.0467
   56ANI     C2 1364   2.208   3.163   3.817 -0.7438 -0.7562  0.0125
   56ANI     C3 1365   2.202   3.055   3.906  0.1063  0.2351 -0.7059
   56ANI     C4 1366   2.219   2.920   3.862  0.0401 -0.0623  0.6233
   56ANI     C5 1367   2.246   2.901   3.724 -0.2911  0.3036 -0.2668
   56ANI     C6 1368   2.253   3.010   3.636  1.2686  0.3149 -0.1277
   56ANI     C7 1369   2.239   3.140   3.684  0.2195 -0.4133  0.2214
   56ANI     H1 1370   2.341   3.406   3.802 -0.0793  0.1018  1.9532
   56ANI     H2 1371   2.194   3.417   3.694 -4.0112  1.0621  1.7966
   56ANI     H3 1372   2.196   3.497   3.847 -0.8798  0.9615 -0.6814
   56ANI     H4 1373   2.192   3.070   4.013 -0.0397 -1.0937 -0.5229
   56ANI     H5 1374   2.213   2.838   3.933  0.6572 -0.9937 -0.3961
   56ANI     H6 1375   2.238   2.802   3.681  1.4427  0.7984 -1.7878
   56ANI     H7 1376   2.284   2.992   3.533 -1.1427  0.3763 -0.8933
   56ANI     H8 1377   2.250   3.214   3.606 -1.7301 -0.8029 -0.4596
   57ANI     C1 1378   2.869   0.412   0.159 -0.4466  0.5027 -0.1701
   57ANI     O1 1379   2.886   0.294   0.085 -0.4934 -0.3526 -0.2898
   57ANI     C2 1380   2.897   0.274  -0.047 -0.1517  0.0958  0.4092
   57ANI     C3 1381   2.918   0.372  -0.147 -0.5397 -0.1999 -0.8107
   57ANI     C4 1382   2.939   0.330  -0.282 -0.4523 -0.1398  0.0306
   57ANI     C5 1383   2.925   0.195  -0.318  0.1462 -0.2670 -0.5302
   57ANI     C6 1384   2.927   0.101  -0.212  0.5397 -0.5019  1.1723
   57ANI     C7 1385   2.900   0.143  -0.082 -0.3155 -0.5324  0.3269
   57ANI     H1 1386   2.966   0.463   0.167  0.4839 -1.1460 -0.8182
   57ANI     H2 1387   2.793   0.480   0.119 -1.0230  0.1535  0.3275
   57ANI     H3 1388   2.842   0.378   0.260  0.5855  2.7014  0.8807
   57ANI     H4 1389   2.927   0.475  -0.114  2.4469 -1.8287  3.9746
   57ANI     H5 1390   2.959   0.408  -0.355 -1.0080  2.0775  2.2040
   57ANI     H6 1391   2.942   0.167  -0.422  2.6944  3.2482 -1.1440
   57ANI     H7 1392   2.950  -0.004  -0.226 -0.2620 -0.6730  1.1298
   57ANI     H8 1393   2.889   0.070  -0.003  1.0869 -2.2505 -1.0341
   58ANI     C1 1394   0.620   2.799   1.543 -0.5498  0.4997 -0.3695
   58ANI     O1 1395   0.586   2.929   1.587 -0.0105 -0.3583  0.4233
   58ANI     C2 1396   0.465   2.991   1.582 -0.3616 -0.3650 -0.2872
   58ANI     C3 1397   0.352   2.917   1.562 -0.3856 -0.0980 -0.2369
   58ANI     C4 1398   0.232   2.976   1.555  0.9699 -0.4454 -0.0281
   58ANI     C5 1399   0.225   3.121   1.549 -0.0447 -0.3329 -1.2951
   58ANI     C6 1400   0.339   3.199   1.563  0.1110  0.5322  0.2828
   58ANI     C7 1401   0.461   3.134   1.576 -0.7655  0.5077  0.6163
   58ANI     H1 1402   0.728   2.781   1.551 -0.0424  3.6775  0.4762
   58ANI     H2 1403   0.571   2.724   1.606  0.6617  0.9138  1.0995
   58ANI     H3 1404   0.589   2.781   1.440  1.8603 -0.6616 -0.9360
   58ANI     H4 1405   0.363   2.809   1.560 -0.5823 -0.0948 -2.9300
   58ANI     H5 1406   0.143   2.914   1.558  0.7481 -0.1213  0.1345
   58ANI     H6 1407   0.125   3.163   1.542  0.1952  0.2279 -1.3293
   58ANI     H7 1408   0.337   3.308   1.555 -2.8349  0.3829 -1.3954
   58ANI     H8 1409   0.549   3.197   1.578 -1.3347  1.2896  2.0140
   59ANI     C1 1410   2.022   1.070   0.913  0.1444  0.4300 -0.0236
   59ANI     O1 1411   2.154   1.096   0.859 -0.2229  0.3281  0.1701
   59ANI     C2 1412   2.252   1.008   0.892 -0.3086 -0.1132  0.4283
   59ANI     C3 1413   2.366   1.058   0.963 -0.4718  0.6777 -0.2877
   59ANI     C4 1414   2.461   0.969   1.012 -0.7559 -0.4616  0.1989
   59ANI     C5 1415   2.447   0.832   0.977 -0.7502 -0.6119 -0.9096
   59ANI     C6 1416   2.334   0.784   0.902 -0.2935  0.3676 -0.1465
   59ANI     C7 1417   2.234   0.870   0.863  0.2251 -0.1947 -0.3678
   59ANI     H1 1418   1.985   0.969   0.890 -0.7053  1.2728 -2.5413
   59ANI     H2 1419   2.011   1.095   1.019 -1.0243 -0.5818  0.1093
   59ANI     H3 1420   1.955   1.146   0.870 -0.9382 -1.0979 -1.0610
   59ANI     H4 1421   2.371   1.165   0.980  3.2867  0.5946 -0.3006
   59ANI     H5 1422   2.552   1.004   1.059  0.2348 -1.6822 -0.7796
   59ANI     H6 1423   2.517   0.760   1.019 -3.6999 -1.4241  2.9258
   59ANI     H7 1424   2.342   0.685   0.858  1.7446 -0.9311  2.9320
   59ANI     H8 1425   2.144   0.835   0.815 -0.6556  2.2487 -0.5906
   60ANI     C1 1426   2.442   1.356   1.147  0.5380 -0.2032  0.0391
   60ANI     O1 1427   2.554   1.325   1.066 -0.0460 -0.2155 -0.0852
   60ANI     C2 1428   2.651   1.236   1.105  0.1646  0.1828 -0.3001
   60ANI     C3 1429   2.655   1.183   1.235 -0.3769  0.6133  0.1795
   60ANI     C4 1430   2.767   1.103   1.277 -0.6044 -0.0932 -0.0138
   60ANI     C5 1431   2.863   1.069   1.180  0.1613 -0.1391  0.1254
   60ANI     C6 1432   2.855   1.113   1.051  0.3004 -0.0106  0.3882
   60ANI     C7 1433   2.747   1.197   1.013  0.0034 -0.1285 -0.5402
   60ANI     H1 1434   2.467   1.392   1.248 -5.5824  3.4227  0.5277
   60ANI     H2 1435   2.394   1.448   1.111 -0.2138  0.2988  2.2292
   60ANI     H3 1436   2.371   1.273   1.161 -0.6360  0.4693 -1.8067
   60ANI     H4 1437   2.567   1.179   1.297 -1.0148 -2.2481 -0.8398
   60ANI     H5 1438   2.778   1.076   1.382  0.4988 -0.3819 -0.2009
   60ANI     H6 1439   2.941   0.997   1.204 -1.6085 -1.8695  0.8329
   60ANI     H7 1440   2.924   1.088   0.970  1.1490  1.2570  0.7064
   60ANI     H8 1441   2.740   1.242   0.915  1.4449 -0.7429 -0.9300
   61ANI     C1 1442   2.868   2.207   3.793  0.0284  0.3349  0.1697
   61ANI     O1 1443   2.915   2.166   3.660 -0.1858 -0.0587 -0.2446
   61ANI     C2 1444   2.989   2.239   3.577 -0.7664  0.1394  0.5219
   61ANI     C3 1445   3.038   2.170   3.463  0.3821 -0.4846 -0.1824
   61ANI     C4 1446   3.116   2.238   3.365  0.1108  0.0455 -0.2039
   61ANI     C5 1447   3.145   2.374   3.379  0.1347 -0.3554  0.0512
   61ANI     C6 1448   3.089   2.442   3.496 -0.0288 -1.1287 -0.0663
   61ANI     C7 1449   3.018   2.373   3.597 -0.3071  0.7419 -0.2062
   61ANI     H1 1450   2.801   2.293   3.800  1.4555  1.2806  3.0302
   61ANI     H2 1451   2.813   2.121   3.832 -1.1709  1.2663  0.5537
   61ANI     H3 1452   2.954   2.234   3.855 -0.4645  0.0940  0.9596
   61ANI     H4 1453   3.015   2.064   3.460 -1.0776 -0.1771 -0.5157
   61ANI     H5 1454   3.164   2.190   3.280  0.6068 -0.7979  0.5389
   61ANI     H6 1455   3.192   2.426   3.296  0.0662 -1.0252 -0.4132
   61ANI     H7 1456   3.118   2.544   3.516  3.1211 -2.2388  1.3107
   61ANI     H8 1457   2.975   2.418   3.685 -0.2223  1.4021 -0.5021
   62ANI     C1 1458   2.681   1.753   0.761 -0.0433 -0.9999  0.1387
   62ANI     O1 1459   2.801   1.684   0.776 -0.4565  0.7807 -0.6601
   62ANI     C2 1460   2.828   1.569   0.715 -0.8967 -0.1311 -0.0467
   62ANI     C3 1461   2.747   1.521   0.610  0.3452 -0.3986 -0.0741
   62ANI     C4 1462   2.774   1.393   0.556  0.3548 -0.6927 -0.2920
   62ANI     C5 1463   2.888   1.317   0.599  0.6563  0.1533  0.2877
   62ANI     C6 1464   2.971   1.370   0.697 -0.3815 -0.4951 -0.1824
   62ANI     C7 1465   2.938   1.493   0.758 -0.6580  0.0490  0.0323
   62ANI     H1 1466   2.660   1.827   0.839 -2.8622  1.2858 -2.6506
   62ANI     H2 1467   2.688   1.796   0.660  4.9025 -0.5556  0.5353
   62ANI     H3 1468   2.595   1.686   0.747 -0.2114 -0.6963 -0.2702
   62ANI     H4 1469   2.666   1.585   0.576 -0.1355 -0.0169  1.7629
   62ANI     H5 1470   2.717   1.353   0.473 -0.4615  2.0152 -1.1067
   62ANI     H6 1471   2.905   1.217   0.559  3.1437  0.4174  0.6062
   62ANI     H7 1472   3.057   1.311   0.726 -0.6367 -1.3273 -1.0780
   62ANI     H8 1473   3.000   1.531   0.838  2.1541  0.9439 -2.4838
   63ANI     C1 1474   0.707   0.736   3.024  0.0194 -0.7336  0.1998
   63ANI     O1 1475   0.695   0.839   3.129 -0.1425 -0.5611  0.2115
   63ANI     C2 1476   0.759   0.833   3.251  0.0547 -0.3433  0.1037
   63ANI     C3 1477   0.868   0.747   3.273  0.1106 -0.0534 -0.3271
   63ANI     C4 1478   0.942   0.756   3.397 -0.3648  0.2211 -0.3082
   63ANI     C5 1479   0.894   0.837   3.501  0.1878  0.0320 -0.4328
   63ANI     C6 1480   0.778   0.915   3.483 -0.4238 -0.7689 -0.4348
   63ANI     C7 1481   0.716   0.920   3.354 -0.4066  0.3457 -0.2511
   63ANI     H1 1482   0.681   0.636   3.063 -0.8664 -0.7148 -0.3252
   63ANI     H2 1483   0.642   0.755   2.938  1.9706 -0.3903 -1.2347
   63ANI     H3 1484   0.807   0.742   2.981 -0.2740  0.1881 -0.3634
   63ANI     H4 1485   0.898   0.673   3.199 -0.7926  0.9703 -1.7396
   63ANI     H5 1486   1.030   0.695   3.416  0.0268  0.7035 -0.5701
   63ANI     H6 1487   0.950   0.838   3.594  1.6645 -0.4579 -1.3072
   63ANI     H7 1488   0.754   0.990   3.558  1.5791 -0.6195  0.0778
   63ANI     H8 1489   0.632   0.987   3.337 -0.9305 -0.3518 -0.4029
   64ANI     C1 1490   2.478   0.033   3.542 -0.3612 -0.2432 -0.3881
   64ANI     O1 1491   2.423   0.084   3.414  0.1308 -0.1937 -0.5356
   64ANI     C2 1492   2.465   0.199   3.352 -0.3717  0.0378 -0.1541
   64ANI     C3 1493   2.387   0.252   3.250 -0.0886  0.3230 -0.6111
   64ANI     C4 1494   2.423   0.375   3.193  0.0803  0.0433 -0.7552
   64ANI     C5 1495   2.544   0.440   3.221 -0.1751  0.3346 -0.2269
   64ANI     C6 1496   2.623   0.382   3.324 -0.3046 -0.1988  0.3699
   64ANI     C7 1497   2.581   0.272   3.393  0.1308 -0.6162  0.1145
   64ANI     H1 1498   2.586   0.023   3.523 -0.0380 -0.7723  1.6458
   64ANI     H2 1499   2.460   0.098   3.629  0.8658  0.3755 -0.5826
   64ANI     H3 1500   2.446  -0.070   3.563 -0.5975  0.2288  1.6754
   64ANI     H4 1501   2.292   0.206   3.226 -0.7747  0.5891  1.4530
   64ANI     H5 1502   2.353   0.410   3.118  0.6969  0.4323 -1.1579
   64ANI     H6 1503   2.572   0.531   3.169  1.3381  0.1096  0.1884
   64ANI     H7 1504   2.717   0.428   3.353  1.8140 -4.1312  0.1178
   64ANI     H8 1505   2.647   0.243   3.475  0.4423  1.2367  0.5435
   65ANI     C1 1506   1.610   0.173   0.756 -0.5056  0.2993  0.3882
   65ANI     O1 1507   1.551   0.137   0.877  0.1631 -0.0470 -0.3616
   65ANI     C2 1508   1.536  -0.001   0.913 -0.4505 -0.6776  0.1511
   65ANI     C3 1509   1.534  -0.110   0.820  0.0370  0.0651 -0.4245
   65ANI     C4 1510   1.517  -0.240   0.873  0.8580  0.6371  0.6290
   65ANI     C5 1511   1.518  -0.264   1.010 -0.0004 -0.1836  0.1930
   65ANI     C6 1512   1.529  -0.156   1.102  0.0610 -0.7254 -0.0001
   65ANI     C7 1513   1.528  -0.028   1.051  0.9127  0.3530 -0.1858
   65ANI     H1 1514   1.567   0.119   0.672  1.4594  0.0844 -0.5013
   65ANI     H2 1515   1.604   0.282   0.740  0.7663  0.2527 -0.5061
   65ANI     H3 1516   1.717   0.150   0.764 -0.5770 -0.2565 -0.2408
   65ANI     H4 1517   1.541  -0.082   0.715  1.2366 -1.6551 -0.8296
   65ANI     H5 1518   1.524  -0.324   0.804  2.1550 -1.3009  3.0407
   65ANI     H6 1519   1.527  -0.365   1.049 -0.9438 -0.7824 -1.0804
   65ANI     H7 1520   1.509  -0.166   1.208  1.5615  0.5271  0.4082
   65ANI     H8 1521   1.526   0.057   1.119  1.7798  0.4927 -0.3349
   66ANI     C1 1522   3.190   0.898   2.451  0.0013 -0.1947 -0.3669
   66ANI     O1 1523   3.187   0.991   2.344 -0.4430  0.5521  0.1974
   66ANI     C2 1524   3.150   1.127   2.359 -0.5357 -0.3061 -0.2209
   66ANI     C3 1525   3.176   1.218   2.254  0.2319 -0.1778  0.1772
   66ANI     C4 1526   3.137   1.353   2.264 -0.3685 -0.5776 -0.9898
   66ANI     C5 1527   3.081   1.398   2.387  0.3324  0.0813  0.2313
   66ANI     C6 1528   3.046   1.309   2.490 -0.5863 -0.8192  0.4584
   66ANI     C7 1529   3.083   1.174   2.473  0.1253  0.8239 -0.7358
   66ANI     H1 1530   3.241   0.805   2.422 -0.3076 -0.2440 -0.7498
   66ANI     H2 1531   3.243   0.942   2.537  1.4700 -0.2828 -1.2022
   66ANI     H3 1532   3.088   0.883   2.488  0.2348  1.5653  1.0215
   66ANI     H4 1533   3.227   1.185   2.163  1.3489  0.8392  0.4274
   66ANI     H5 1534   3.157   1.426   2.186 -0.9429 -0.1825 -0.7685
   66ANI     H6 1535   3.056   1.503   2.399 -0.0309  0.2054 -1.4374
   66ANI     H7 1536   2.990   1.345   2.576 -2.1719  0.5075 -1.0849
   66ANI     H8 1537   3.052   1.104   2.549 -0.0736 -0.4785 -1.9999
   67ANI     C1 1538   0.126   2.397   1.538 -0.1377  0.2993  0.2794
   67ANI     O1 1539   0.120   2.514   1.455 -0.1834  0.1322  0.5447
   67ANI     C2 1540   0.218   2.549   1.369  0.3600 -0.3938 -0.1676
   67ANI     C3 1541   0.305   2.461   1.311  0.2124  0.0889  0.9191
   67ANI     C4 1542   0.382   2.491   1.196 -0.7695 -0.5123  0.0776
   67ANI     C5 1543   0.383   2.622   1.147 -0.2457 -1.0567 -0.7159
   67ANI     C6 1544   0.295   2.719   1.208  0.6331 -0.2180 -0.0956
   67ANI     C7 1545   0.219   2.683   1.315  0.2085  0.0091 -0.3426
   67ANI     H1 1546   0.223   2.396   1.589  0.5801  0.9894 -1.0198
   67ANI     H2 1547   0.043   2.396   1.609 -0.5569 -2.2616 -0.1976
   67ANI     H3 1548   0.121   2.309   1.472 -0.5479  0.1919  0.4570
   67ANI     H4 1549   0.302   2.354   1.330  0.3626 -0.1322 -0.2463
   67ANI     H5 1550   0.453   2.425   1.147  0.0057  1.6201 -1.7573
   67ANI     H6 1551   0.440   2.650   1.058  1.3572 -0.9500  0.3205
   67ANI     H7 1552   0.297   2.824   1.180  1.0607 -0.3345 -0.4984
   67ANI     H8 1553   0.148   2.752   1.358  0.3832 -1.6095  2.6656
   68ANI     C1 1554   2.592   1.130   2.245  0.3573  0.1892 -0.1417
   68ANI     O1 1555   2.540   1.000   2.266 -0.7960  0.1089  0.0020
   68ANI     C2 1556   2.619   0.882   2.249  0.1333 -0.4174 -0.9102
   68ANI     C3 1557   2.759   0.891   2.263  0.9663  0.0408 -0.4414
   68ANI     C4 1558   2.827   0.772   2.239  0.1740  0.5672 -0.2130
   68ANI     C5 1559   2.765   0.640   2.212  0.1230  0.7922 -0.2527
   68ANI     C6 1560   2.626   0.632   2.204 -0.1215  0.6058 -0.7040
   68ANI     C7 1561   2.554   0.756   2.222 -0.0966 -0.9804 -1.0483
   68ANI     H1 1562   2.689   1.147   2.294  0.5586 -2.4920  0.4515
   68ANI     H2 1563   2.609   1.153   2.139  3.5970 -1.2339 -0.0018
   68ANI     H3 1564   2.519   1.198   2.290  1.8763  1.1216  0.9827
   68ANI     H4 1565   2.817   0.983   2.265  1.2513 -0.1604  0.6316
   68ANI     H5 1566   2.936   0.778   2.239  0.1935  0.6600 -2.5257
   68ANI     H6 1567   2.818   0.546   2.196 -2.6929 -0.7477 -0.8469
   68ANI     H7 1568   2.580   0.535   2.187  1.2932 -0.3146  0.5747
   68ANI     H8 1569   2.447   0.747   2.209 -0.1103 -0.6688 -1.1398
   69ANI     C1 1570   0.651   0.568   3.532 -0.2501 -0.1023  0.4884
   69ANI     O1 1571   0.654   0.479   3.418 -0.4195 -0.6647  0.1235
   69ANI     C2 1572   0.771   0.435   3.365  0.1234 -0.5871 -0.4680
   69ANI     C3 1573   0.892   0.439   3.434  0.1912 -0.3819  0.5629
   69ANI     C4 1574   1.014   0.393   3.369  0.1028  0.1226 -1.0053
   69ANI     C5 1575   1.009   0.346   3.237  0.1860 -0.3619 -0.7768
   69ANI     C6 1576   0.881   0.339   3.171  0.5702  0.2789  0.0513
   69ANI     C7 1577   0.764   0.388   3.235  0.3253 -0.0393  0.3859
   69ANI     H1 1578   0.729   0.645   3.522 -1.1752  1.0283  1.7694
   69ANI     H2 1579   0.548   0.605   3.543 -0.0051  0.2415  1.7031
   69ANI     H3 1580   0.678   0.515   3.624  0.5005 -0.7127 -0.0765
   69ANI     H4 1581   0.901   0.480   3.534 -1.7536 -0.4696  0.7923
   69ANI     H5 1582   1.114   0.409   3.408 -0.6877 -0.6195  1.4113
   69ANI     H6 1583   1.099   0.325   3.179 -1.3327 -2.3784 -2.4462
   69ANI     H7 1584   0.877   0.305   3.068  0.6684  0.3336  0.0292
   69ANI     H8 1585   0.670   0.400   3.181 -0.5336  0.8722  2.0492
   70ANI     C1 1586   3.112   1.618   2.888 -0.2444 -1.2303 -0.0501
   70ANI     O1 1587   3.079   1.663   2.756 -0.1665 -0.1457  0.3789
   70ANI     C2 1588   3.143   1.776   2.705  0.2732 -0.1876  0.0693
   70ANI     C3 1589   3.079   1.832   2.592 -0.1942 -0.1544  0.2838
   70ANI     C4 1590   3.146   1.943   2.537 -0.6319 -0.1193 -0.0444
   70ANI     C5 1591   3.264   1.998   2.588  0.2639  0.4569  0.1971
   70ANI     C6 1592   3.320   1.946   2.708  0.0241  0.1593 -0.1528
   70ANI     C7 1593   3.256   1.834   2.770 -0.9346 -0.7885  0.1548
   70ANI     H1 1594   3.065   1.521   2.908 -1.0041 -0.8736 -0.1025
   70ANI     H2 1595   3.220   1.598   2.891  0.0208  0.1688  0.8508
   70ANI     H3 1596   3.083   1.692   2.964 -1.4608  0.4956 -2.1498
   70ANI     H4 1597   2.992   1.781   2.553 -1.3105  0.9931  1.2015
   70ANI     H5 1598   3.103   1.979   2.444 -1.9178  0.4811  0.7613
   70ANI     H6 1599   3.306   2.087   2.541 -2.2217  1.3677 -0.3577
   70ANI     H7 1600   3.410   1.984   2.756  0.5861 -0.2516 -0.8819
   70ANI     H8 1601   3.304   1.796   2.859  1.2385 -1.2443 -1.1724
   71ANI     C1 1602   1.658   0.893   3.093 -0.1766  0.0856  0.6561
   71ANI     O1 1603   1.531   0.943   3.143 -0.0535  0.2825  0.2426
   71ANI     C2 1604   1.424   0.867   3.124  0.2965  0.0022 -0.6210
   71ANI     C3 1605   1.426   0.731   3.085 -0.2620 -0.1122  0.3022
   71ANI     C4 1606   1.316   0.653   3.059  0.0022  0.1670 -0.0806
   71ANI     C5 1607   1.192   0.708   3.091  1.1029  0.0582  0.2360
   71ANI     C6 1608   1.179   0.840   3.142  0.6736  0.4107 -0.2126
   71ANI     C7 1609   1.298   0.922   3.154 -0.1707  0.4685  0.4954
   71ANI     H1 1610   1.734   0.968   3.116 -0.5330  0.7839 -0.3962
   71ANI     H2 1611   1.682   0.800   3.145  0.9119  0.5494  0.9894
   71ANI     H3 1612   1.653   0.876   2.985 -1.8057 -0.5783  0.8152
   71ANI     H4 1613   1.524   0.694   3.056  0.1475  1.2835 -0.1054
   71ANI     H5 1614   1.324   0.553   3.017 -0.6564 -0.0484  0.3035
   71ANI     H6 1615   1.103   0.645   3.085  0.6229  0.9122 -1.8752
   71ANI     H7 1616   1.084   0.891   3.155  0.7936  0.5598  0.0882
   71ANI     H8 1617   1.289   1.024   3.192  0.8923  0.9465 -0.5119
   72ANI     C1 1618   1.237   2.342   0.198  0.4315 -0.5668  0.1532
   72ANI     O1 1619   1.248   2.442   0.303  0.4481  0.1987  0.3169
   72ANI     C2 1620   1.142   2.474   0.393  0.5451 -0.2904  0.6578
   72ANI     C3 1621   1.133   2.598   0.449 -0.7123 -0.4952  0.5963
   72ANI     C4 1622   1.021   2.645   0.524  0.7072  0.2102 -0.1081
   72ANI     C5 1623   0.926   2.542   0.558  0.1109  0.1264  0.2598
   72ANI     C6 1624   0.936   2.407   0.521 -0.6498  0.4577  0.6337
   72ANI     C7 1625   1.042   2.378   0.430  0.2789  0.0122  0.1195
   72ANI     H1 1626   1.329   2.326   0.140 -0.0760 -1.3540 -0.4409
   72ANI     H2 1627   1.221   2.241   0.236 -1.2261 -0.9885 -1.5742
   72ANI     H3 1628   1.158   2.378   0.131 -1.8682 -1.4009  2.3528
   72ANI     H4 1629   1.216   2.664   0.427 -1.6057 -0.4434 -2.8520
   72ANI     H5 1630   1.016   2.750   0.552  1.7982  1.0063 -2.6980
   72ANI     H6 1631   0.842   2.568   0.623 -1.4104 -2.3289 -0.6437
   72ANI     H7 1632   0.873   2.326   0.556  0.9009 -1.0473 -0.0008
   72ANI     H8 1633   1.042   2.276   0.393 -0.3821  0.5335 -1.3643
   73ANI     C1 1634   1.798   2.796   1.563 -0.1257 -0.3861  0.7912
   73ANI     O1 1635   1.854   2.930   1.546 -0.4921  0.5422  0.0293
   73ANI     C2 1636   1.783   3.048   1.556  0.2414  0.1726  0.3515
   73ANI     C3 1637   1.640   3.060   1.551 -0.3807  0.2733 -0.4150
   73ANI     C4 1638   1.581   3.187   1.556  0.7110 -0.5379  0.6118
   73ANI     C5 1639   1.661   3.304   1.560  0.0482 -0.2870 -0.3687
   73ANI     C6 1640   1.802   3.293   1.565 -0.6818  0.1000  0.0251
   73ANI     C7 1641   1.853   3.171   1.568 -0.2133 -0.0969  0.1016
   73ANI     H1 1642   1.741   2.768   1.473  0.3293  0.3660  0.2688
   73ANI     H2 1643   1.869   2.715   1.582 -1.1628 -1.5028 -0.0031
   73ANI     H3 1644   1.732   2.799   1.651  1.2202  1.0318  1.7834
   73ANI     H4 1645   1.581   2.970   1.541 -0.4724  0.4091 -1.0894
   73ANI     H5 1646   1.473   3.198   1.549  0.8133 -1.4508 -2.8752
   73ANI     H6 1647   1.617   3.403   1.547 -1.3176 -1.0525 -1.6694
   73ANI     H7 1648   1.866   3.381   1.570  1.8201 -1.2849 -4.7567
   73ANI     H8 1649   1.961   3.169   1.576 -0.1621  0.6899 -0.3628
   74ANI     C1 1650   3.014   3.304   0.311  0.5086 -0.8226  0.7980
   74ANI     O1 1651   2.906   3.220   0.358  0.0266  0.3534  0.1305
   74ANI     C2 1652   2.815   3.265   0.441  0.0878 -0.9866  0.0101
   74ANI     C3 1653   2.802   3.402   0.483  0.4443 -0.4143  0.0442
   74ANI     C4 1654   2.701   3.440   0.576  0.1738  0.8375  0.1935
   74ANI     C5 1655   2.610   3.342   0.624  0.5403 -0.5668  0.4949
   74ANI     C6 1656   2.618   3.209   0.575 -0.2682  0.2925  0.0350
   74ANI     C7 1657   2.730   3.174   0.494  0.2715 -0.2595 -0.3316
   74ANI     H1 1658   3.098   3.260   0.256  0.0345  1.3641 -1.7537
   74ANI     H2 1659   2.980   3.391   0.254  0.9934 -0.9157  0.3686
   74ANI     H3 1660   3.062   3.338   0.403 -0.1781  0.3332  0.7351
   74ANI     H4 1661   2.865   3.479   0.439 -0.0840  0.4110  0.7041
   74ANI     H5 1662   2.677   3.543   0.598 -0.1558  1.3455 -2.3865
   74ANI     H6 1663   2.531   3.373   0.692 -1.9124 -1.1438 -1.9917
   74ANI     H7 1664   2.549   3.133   0.609 -1.2984  0.5173 -1.5147
   74ANI     H8 1665   2.752   3.072   0.462 -1.4581 -0.9377  0.5549
   75ANI     C1 1666   3.323   2.686   2.297  0.4908 -0.0529 -0.5054
   75ANI     O1 1667   3.378   2.553   2.283  0.3303 -0.1477 -0.0892
   75ANI     C2 1668   3.296   2.442   2.263  0.6046 -0.3637  0.1250
   75ANI     C3 1669   3.157   2.453   2.249 -0.4033 -0.6227  0.0307
   75ANI     C4 1670   3.078   2.333   2.241  0.0564  0.2399  0.4331
   75ANI     C5 1671   3.134   2.212   2.231 -0.1044  0.5395 -0.0876
   75ANI     C6 1672   3.276   2.206   2.243 -0.3847 -0.0388 -0.8076
   75ANI     C7 1673   3.353   2.318   2.260 -0.1924  0.3392  0.0284
   75ANI     H1 1674   3.277   2.702   2.396  0.3430 -2.2513 -0.1996
   75ANI     H2 1675   3.407   2.755   2.281  0.4759 -0.1209 -0.8631
   75ANI     H3 1676   3.240   2.714   2.232  2.0552  1.0969 -2.0557
   75ANI     H4 1677   3.101   2.547   2.252  0.4473 -0.1309  0.6619
   75ANI     H5 1678   2.970   2.343   2.233  0.1262  0.4244 -0.3652
   75ANI     H6 1679   3.082   2.120   2.208 -2.5102  2.1429 -1.3160
   75ANI     H7 1680   3.325   2.109   2.241  1.3945  0.7513  1.5830
   75ANI     H8 1681   3.461   2.319   2.271  0.0551 -2.1079 -1.7919
   76ANI     C1 1682   0.469   3.419   3.064  0.2552  0.2229 -0.2463
   76ANI     O1 1683   0.554   3.502   2.990  0.1550  0.1992  0.1610
   76ANI     C2 1684   0.649   3.451   2.900  0.1012 -0.2226 -0.5579
   76ANI     C3 1685   0.763   3.522   2.862 -0.7851  0.0716 -0.0943
   76ANI     C4 1686   0.853   3.463   2.775  0.0782  0.6109 -0.4193
   76ANI     C5 1687   0.836   3.329   2.731 -0.4422 -0.1560  0.0918
   76ANI     C6 1688   0.715   3.262   2.755  0.0820 -0.3457 -0.6217
   76ANI     C7 1689   0.623   3.323   2.833 -0.2500 -0.7948  0.1512
   76ANI     H1 1690   0.390   3.389   2.994 -0.8420 -2.5656  2.0698
   76ANI     H2 1691   0.525   3.334   3.107 -2.9034 -2.2545 -0.8168
   76ANI     H3 1692   0.426   3.464   3.154  0.9203 -2.6917  1.6080
   76ANI     H4 1693   0.786   3.621   2.901  2.1497  0.2557 -2.1381
   76ANI     H5 1694   0.942   3.518   2.745  0.4629  1.1827  1.7192
   76ANI     H6 1695   0.909   3.284   2.664 -1.0148  1.4011 -1.6212
   76ANI     H7 1696   0.684   3.169   2.709 -0.6326  0.6480 -2.2113
   76ANI     H8 1697   0.535   3.267   2.860 -0.5154 -0.5186 -0.1368
   77ANI     C1 1698   0.527   1.218   1.510 -0.4656  0.3047 -0.8741
   77ANI     O1 1699   0.392   1.174   1.502  0.6166 -0.2129 -0.4809
   77ANI     C2 1700   0.289   1.262   1.515 -0.2616  0.4638  0.0257
   77ANI     C3 1701   0.160   1.216   1.512  0.6366 -0.7070  0.2511
   77ANI     C4 1702   0.050   1.300   1.528  0.0999 -0.3708 -0.2688
   77ANI     C5 1703   0.073   1.440   1.543  0.1026  0.2330 -0.3778
   77ANI     C6 1704   0.201   1.488   1.544 -0.6952  0.3783 -0.6876
   77ANI     C7 1705   0.311   1.401   1.537 -0.3529 -0.6672  0.0102
   77ANI     H1 1706   0.543   1.255   1.612 -0.9082  4.2548 -2.1508
   77ANI     H2 1707   0.597   1.135   1.495 -1.5005 -1.0806  1.6631
   77ANI     H3 1708   0.555   1.293   1.435  1.3186  0.1476 -0.3944
   77ANI     H4 1709   0.133   1.113   1.490 -0.1797 -0.3220 -0.5776
   77ANI     H5 1710  -0.049   1.258   1.518 -1.1663  1.9181  2.0853
   77ANI     H6 1711  -0.009   1.511   1.545  0.7780  1.0328 -0.5699
   77ANI     H7 1712   0.209   1.596   1.552 -0.2106  0.2780  0.2714
   77ANI     H8 1713   0.408   1.450   1.538 -1.1962  1.1937 -2.7695
   78ANI     C1 1714   3.377   2.494   0.642 -0.3504 -0.7296  0.5833
   78ANI     O1 1715   3.514   2.499   0.689  0.9350  0.4910  0.0220
   78ANI     C2 1716   3.598   2.397   0.678  0.5199 -0.0616 -0.6844
   78ANI     C3 1717   3.557   2.267   0.640  1.0182 -0.5589 -0.0370
   78ANI     C4 1718   3.646   2.156   0.646 -1.0104  0.2721  0.0569
   78ANI     C5 1719   3.773   2.176   0.701  0.1380 -0.6564  0.0379
   78ANI     C6 1720   3.800   2.300   0.757  0.2595  0.1097 -0.1389
   78ANI     C7 1721   3.725   2.414   0.732 -0.0710  0.3727  0.2940
   78ANI     H1 1722   3.309   2.445   0.713  0.9116 -0.8890  1.6857
   78ANI     H2 1723   3.342   2.597   0.650 -1.3380 -0.8589 -1.6419
   78ANI     H3 1724   3.369   2.453   0.540 -1.8754  1.1014 -0.0572
   78ANI     H4 1725   3.460   2.256   0.594  1.7384  0.4249 -1.8168
   78ANI     H5 1726   3.622   2.059   0.602 -2.7127  0.9170 -0.4410
   78ANI     H6 1727   3.838   2.090   0.711 -0.6242 -1.3606 -0.9758
   78ANI     H7 1728   3.894   2.319   0.808  0.6064  1.2644 -1.2117
   78ANI     H8 1729   3.761   2.511   0.764  0.5821  0.4166 -0.5478
   79ANI     C1 1730   0.740   1.213   1.214 -0.5109 -0.2644 -0.4307
   79ANI     O1 1731   0.775   1.073   1.183  0.2871 -0.5506 -0.5912
   79ANI     C2 1732   0.880   1.032   1.100  0.1700  0.5014 -0.1382
   79ANI     C3 1733   0.951   1.122   1.026 -0.1032 -0.6364  0.0718
   79ANI     C4 1734   1.046   1.072   0.936 -0.0268 -0.0658  0.3155
   79ANI     C5 1735   1.075   0.931   0.934  0.2368  0.7077  0.3722
   79ANI     C6 1736   1.011   0.841   1.021  0.0420 -0.0169 -0.1002
   79ANI     C7 1737   0.910   0.898   1.099  0.5552  0.5179  0.1254
   79ANI     H1 1738   0.801   1.247   1.299 -2.1115  1.1570  0.1754
   79ANI     H2 1739   0.743   1.284   1.130 -1.7852  3.1524  2.2688
   79ANI     H3 1740   0.635   1.218   1.245 -0.1405  0.0192  0.7848
   79ANI     H4 1741   0.935   1.228   1.044 -2.6860 -1.0677  0.4645
   79ANI     H5 1742   1.106   1.136   0.872 -1.6826 -0.5592 -1.7726
   79ANI     H6 1743   1.159   0.895   0.874 -1.4128  0.2727 -1.7571
   79ANI     H7 1744   1.032   0.735   1.023 -1.7480 -0.4159 -0.9217
   79ANI     H8 1745   0.863   0.831   1.170 -1.3070  2.3835  0.6990
   80ANI     C1 1746   2.449   3.182   3.299  0.7264  0.2194 -0.3534
   80ANI     O1 1747   2.435   3.047   3.335 -0.4957  0.1146  0.2601
   80ANI     C2 1748   2.544   2.961   3.332  0.5601 -0.1626  0.7399
   80ANI     C3 1749   2.530   2.845   3.408 -0.3535  0.4488  0.4708
   80ANI     C4 1750   2.635   2.751   3.403  0.1439 -0.1714 -0.5272
   80ANI     C5 1751   2.751   2.780   3.338 -0.2627 -0.1680  0.6203
   80ANI     C6 1752   2.762   2.896   3.260  0.1854  0.8509 -0.5325
   80ANI     C7 1753   2.658   2.985   3.262  0.4349 -0.4199 -0.5923
   80ANI     H1 1754   2.482   3.183   3.195  1.8808 -0.4550 -0.0022
   80ANI     H2 1755   2.352   3.233   3.304 -0.2295 -1.5026 -0.9292
   80ANI     H3 1756   2.514   3.239   3.366  1.8948 -0.2264 -1.1038
   80ANI     H4 1757   2.440   2.829   3.466 -0.4567 -4.7936 -0.9050
   80ANI     H5 1758   2.627   2.658   3.458  0.2266 -0.6882 -1.3823
   80ANI     H6 1759   2.824   2.700   3.345  0.1442  0.0137 -1.1249
   80ANI     H7 1760   2.842   2.924   3.192  1.4398 -1.8598 -0.2452
   80ANI     H8 1761   2.667   3.075   3.201 -0.6545  0.2208  0.1824
   81ANI     C1 1762   2.100   1.755   1.356  0.8982  0.1739 -0.2711
   81ANI     O1 1763   2.181   1.808   1.462  0.1362  0.0346  0.1167
   81ANI     C2 1764   2.240   1.933   1.454 -0.4174 -1.2888 -0.1144
   81ANI     C3 1765   2.206   2.024   1.345  0.0400  0.2377  0.0189
   81ANI     C4 1766   2.279   2.142   1.325  0.1115  1.1989 -0.4263
   81ANI     C5 1767   2.379   2.171   1.418 -1.0819  0.3486 -0.3568
   81ANI     C6 1768   2.406   2.087   1.525  0.4376 -0.3634 -0.1397
   81ANI     C7 1769   2.341   1.968   1.540  0.0072 -0.0298  0.8171
   81ANI     H1 1770   2.015   1.814   1.320 -1.5869 -0.6490  3.8828
   81ANI     H2 1771   2.160   1.708   1.278 -1.2195 -0.5234 -1.5172
   81ANI     H3 1772   2.041   1.670   1.393  0.8002  0.5851  0.5436
   81ANI     H4 1773   2.130   1.994   1.273 -1.5303 -0.7209  2.0134
   81ANI     H5 1774   2.260   2.213   1.245  0.7740 -0.2708 -1.9281
   81ANI     H6 1775   2.430   2.265   1.399 -0.8713  0.0307 -1.3867
   81ANI     H7 1776   2.475   2.123   1.602 -1.9779 -1.6170  2.7308
   81ANI     H8 1777   2.362   1.907   1.627 -0.0618  0.7247  1.3730
   82ANI     C1 1778   1.902   2.727   3.690 -0.0382  0.8276  0.2320
   82ANI     O1 1779   1.767   2.677   3.710  0.0081  0.4657  0.4383
   82ANI     C2 1780   1.720   2.573   3.628 -0.2030 -0.7461  0.8226
   82ANI     C3 1781   1.805   2.501   3.534 -0.5643 -0.4983  0.8730
   82ANI     C4 1782   1.757   2.394   3.465  0.3739  0.1556  0.5037
   82ANI     C5 1783   1.623   2.356   3.485  0.0988  0.2385 -0.1979
   82ANI     C6 1784   1.541   2.420   3.576 -0.6446 -0.6539 -0.7027
   82ANI     C7 1785   1.591   2.535   3.646 -0.1433  1.0262 -0.5359
   82ANI     H1 1786   1.908   2.781   3.594 -0.1191  1.4814  0.5987
   82ANI     H2 1787   1.910   2.805   3.766  0.7956  0.2329  0.7567
   82ANI     H3 1788   1.982   2.653   3.700 -0.3719  0.3258 -0.7007
   82ANI     H4 1789   1.911   2.519   3.522 -0.7526  0.4101  0.5489
   82ANI     H5 1790   1.822   2.343   3.395  0.1976 -0.0839  0.5164
   82ANI     H6 1791   1.572   2.274   3.435 -0.7631  1.4407 -1.3303
   82ANI     H7 1792   1.440   2.386   3.598 -2.3334  3.4666 -1.4965
   82ANI     H8 1793   1.527   2.587   3.716 -1.0477 -0.2283 -0.4011
   83ANI     C1 1794   1.329   1.929   1.517 -0.4776  0.0560 -0.2596
   83ANI     O1 1795   1.468   1.912   1.532 -1.0069  0.1719 -0.0679
   83ANI     C2 1796   1.531   1.792   1.524 -0.4097  0.3411  0.2416
   83ANI     C3 1797   1.671   1.791   1.547 -0.1789  0.0026  0.3137
   83ANI     C4 1798   1.736   1.662   1.557  0.3233 -0.2756 -0.0325
   83ANI     C5 1799   1.659   1.540   1.548  0.1545 -0.2994  0.0074
   83ANI     C6 1800   1.520   1.539   1.522  0.0370 -0.2922 -0.0173
   83ANI     C7 1801   1.459   1.667   1.510 -0.4139  0.3612 -0.8831
   83ANI     H1 1802   1.270   1.895   1.603  1.8478 -0.0045  1.3507
   83ANI     H2 1803   1.312   2.037   1.511 -1.5033 -0.0958 -0.2229
   83ANI     H3 1804   1.301   1.879   1.423 -0.2709 -0.0178 -0.2822
   83ANI     H4 1805   1.723   1.886   1.551  0.2919 -0.2460  0.1734
   83ANI     H5 1806   1.844   1.658   1.568  0.3710  1.2924  0.0983
   83ANI     H6 1807   1.710   1.446   1.567  2.4512  1.1380  1.1294
   83ANI     H7 1808   1.470   1.444   1.512  0.7715 -0.8281  1.2863
   83ANI     H8 1809   1.352   1.655   1.498  0.0332 -1.4358 -3.5715
   84ANI     C1 1810   0.167   1.602   0.104 -0.1103  0.1284 -0.1112
   84ANI     O1 1811   0.204   1.703   0.006 -0.1660  0.4804 -0.0163
   84ANI     C2 1812   0.311   1.793   0.021 -0.4981  0.3686 -0.7964
   84ANI     C3 1813   0.376   1.809   0.149  0.2174 -0.4000 -0.5043
   84ANI     C4 1814   0.493   1.883   0.153  0.2860  0.2202  0.2305
   84ANI     C5 1815   0.542   1.941   0.033  0.2557  0.3786 -0.8649
   84ANI     C6 1816   0.473   1.931  -0.088  0.2545  0.0043 -0.1309
   84ANI     C7 1817   0.356   1.861  -0.093  0.4427 -0.0843  0.3826
   84ANI     H1 1818   0.252   1.535   0.122 -0.4699 -0.4158 -0.4411
   84ANI     H2 1819   0.136   1.647   0.200 -1.1087 -1.8661  0.5131
   84ANI     H3 1820   0.088   1.533   0.075  0.2536 -1.0049  1.4782
   84ANI     H4 1821   0.335   1.769   0.241 -1.3729  0.0944 -0.9893
   84ANI     H5 1822   0.549   1.882   0.246  0.6367 -1.7107  0.0160
   84ANI     H6 1823   0.642   1.983   0.029  0.0055  0.9431 -1.3973
   84ANI     H7 1824   0.506   1.990  -0.173  0.8517 -0.4308 -0.2059
   84ANI     H8 1825   0.298   1.854  -0.185  0.9821 -1.4882  0.1446
   85ANI     C1 1826   0.809   1.587   1.206  0.7723  0.0167  0.0172
   85ANI     O1 1827   0.819   1.546   1.070 -0.2876 -0.2590 -0.6408
   85ANI     C2 1828   0.943   1.527   1.012  0.1170  0.0318  0.5868
   85ANI     C3 1829   1.070   1.565   1.064  0.4670  0.0286  0.2705
   85ANI     C4 1830   1.188   1.548   0.996 -0.0634 -0.2163  0.1641
   85ANI     C5 1831   1.192   1.484   0.874  0.2235  0.1182  0.2250
   85ANI     C6 1832   1.063   1.445   0.819  0.4623 -0.1105 -0.1830
   85ANI     C7 1833   0.945   1.457   0.891  0.6780 -0.5619  0.8107
   85ANI     H1 1834   0.703   1.609   1.223  1.1302  0.7099  1.4291
   85ANI     H2 1835   0.824   1.502   1.273 -1.1245  1.4318  2.2860
   85ANI     H3 1836   0.879   1.667   1.237  0.9288  0.1281 -0.6081
   85ANI     H4 1837   1.062   1.621   1.157 -4.4458  1.7568 -1.0231
   85ANI     H5 1838   1.274   1.602   1.036 -0.7204  0.6494  0.4048
   85ANI     H6 1839   1.290   1.464   0.831  1.6224  3.3552  1.7120
   85ANI     H7 1840   1.062   1.395   0.722 -4.3289  3.7392 -2.2985
   85ANI     H8 1841   0.849   1.430   0.849  1.0454 -1.6452  0.6451
   86ANI     C1 1842   3.035   0.879   0.644 -0.4513  0.7209 -0.7328
   86ANI     O1 1843   2.942   0.908   0.527  0.1960  0.2066 -0.2687
   86ANI     C2 1844   2.808   0.944   0.554  0.0914  0.1417 -0.4616
   86ANI     C3 1845   2.716   0.929   0.450  0.3966 -0.0897 -0.5369
   86ANI     C4 1846   2.584   0.985   0.448 -0.3491 -0.1756 -0.5128
   86ANI     C5 1847   2.541   1.048   0.567 -0.1475 -0.1178 -1.0110
   86ANI     C6 1848   2.632   1.045   0.679  0.6446 -0.3691 -0.0805
   86ANI     C7 1849   2.764   1.000   0.674 -0.3299 -0.0702  0.1301
   86ANI     H1 1850   3.132   0.855   0.601 -0.3504  0.7842 -0.5412
   86ANI     H2 1851   3.050   0.969   0.705  0.8170 -1.2593  1.9937
   86ANI     H3 1852   3.004   0.799   0.712  1.9143  0.0600 -0.3993
   86ANI     H4 1853   2.750   0.873   0.363 -0.8337 -1.7299  0.0121
   86ANI     H5 1854   2.518   0.978   0.363 -0.3147  0.7276 -0.6202
   86ANI     H6 1855   2.443   1.093   0.573 -0.3766 -0.8309  1.3247
   86ANI     H7 1856   2.604   1.112   0.759  0.1739 -1.1931  0.4507
   86ANI     H8 1857   2.833   1.013   0.757 -1.6274  0.4533  1.1450
   87ANI     C1 1858   2.134   1.227   0.475 -0.4909 -0.3639 -1.2495
   87ANI     O1 1859   2.087   1.109   0.401  0.4427 -0.0803 -0.7497
   87ANI     C2 1860   1.992   1.104   0.302 -0.6092 -0.8978  0.5536
   87ANI     C3 1861   1.927   1.225   0.253 -0.7729  0.1743  1.0793
   87ANI     C4 1862   1.851   1.212   0.132 -0.4639  0.5050  0.0726
   87ANI     C5 1863   1.839   1.087   0.066 -0.0481  0.4968 -0.2157
   87ANI     C6 1864   1.895   0.973   0.119  0.4196 -0.7302 -0.0938
   87ANI     C7 1865   1.970   0.981   0.244  0.0902  1.0602  0.6699
   87ANI     H1 1866   2.210   1.194   0.548 -0.1200  2.9926 -0.0469
   87ANI     H2 1867   2.183   1.294   0.404 -0.8673 -0.4037 -1.5440
   87ANI     H3 1868   2.052   1.278   0.528 -0.4077 -1.0495 -0.4438
   87ANI     H4 1869   1.943   1.328   0.286 -0.1188  0.6596 -0.7212
   87ANI     H5 1870   1.816   1.302   0.083 -0.0350 -0.3101 -1.7776
   87ANI     H6 1871   1.785   1.072  -0.026 -0.6667  1.0433  0.0547
   87ANI     H7 1872   1.893   0.875   0.072  3.2391 -1.9679  2.1845
   87ANI     H8 1873   2.015   0.895   0.292 -0.8760  0.5487  0.6546
   88ANI     C1 1874   0.817   1.328   2.240  0.3907  0.2982 -0.0479
   88ANI     O1 1875   0.912   1.437   2.241  0.5135 -0.3264  0.2425
   88ANI     C2 1876   0.868   1.570   2.227  0.7019 -0.0491 -0.3922
   88ANI     C3 1877   0.971   1.665   2.230 -1.8942  0.2619 -0.5667
   88ANI     C4 1878   0.930   1.797   2.245 -0.6586  0.1174 -0.2600
   88ANI     C5 1879   0.798   1.839   2.247 -0.5569  0.4376 -0.3173
   88ANI     C6 1880   0.696   1.741   2.235  0.1275  0.8740  0.7013
   88ANI     C7 1881   0.735   1.603   2.217  0.6223 -0.3668 -0.1581
   88ANI     H1 1882   0.879   1.237   2.243  0.9362  0.6801  0.1942
   88ANI     H2 1883   0.751   1.338   2.326  0.1012 -0.8364 -0.1339
   88ANI     H3 1884   0.763   1.328   2.145 -1.1284  1.9005  0.7955
   88ANI     H4 1885   1.075   1.638   2.212 -1.9201  0.8651 -1.6442
   88ANI     H5 1886   1.011   1.868   2.258 -0.5894 -0.4691  2.7526
   88ANI     H6 1887   0.772   1.944   2.246 -0.5263  0.4576 -2.7717
   88ANI     H7 1888   0.590   1.765   2.231  0.0097  0.4335  1.0692
   88ANI     H8 1889   0.659   1.525   2.218  0.0237  0.2112  1.2031
   89ANI     C1 1890   0.406   0.695   3.240 -0.2158  0.2431 -0.9521
   89ANI     O1 1891   0.293   0.776   3.242  1.1177  0.0865  0.0233
   89ANI     C2 1892   0.267   0.880   3.147 -0.3896 -0.0800 -0.0892
   89ANI     C3 1893   0.165   0.971   3.171 -0.5439  0.0236 -0.1974
   89ANI     C4 1894   0.129   1.076   3.092 -0.4756 -0.1990  0.0778
   89ANI     C5 1895   0.195   1.091   2.968 -0.3333 -0.7506 -0.3946
   89ANI     C6 1896   0.293   0.991   2.927 -0.3030 -0.0481 -0.1008
   89ANI     C7 1897   0.334   0.895   3.022 -0.2050 -0.5286 -0.9855
   89ANI     H1 1898   0.419   0.650   3.339  0.3220  0.6240 -0.8439
   89ANI     H2 1899   0.386   0.613   3.171  1.8805  0.4719 -1.8654
   89ANI     H3 1900   0.497   0.744   3.204  0.3230  0.2381  0.3433
   89ANI     H4 1901   0.112   0.965   3.265  0.7277 -1.3528  0.4441
   89ANI     H5 1902   0.062   1.154   3.125 -1.6955 -0.9012 -0.7106
   89ANI     H6 1903   0.171   1.166   2.893  0.6127  0.3580  0.3981
   89ANI     H7 1904   0.341   1.000   2.831  0.1170 -1.9202 -0.0983
   89ANI     H8 1905   0.416   0.830   2.994 -0.4345 -0.3939 -2.0046
   90ANI     C1 1906   1.328   1.767   2.324  0.4200 -0.2666 -0.6417
   90ANI     O1 1907   1.465   1.802   2.308  0.0531 -0.0031  0.2604
   90ANI     C2 1908   1.511   1.928   2.291 -0.9569  0.0382  0.1363
   90ANI     C3 1909   1.431   2.030   2.256  0.3226 -0.1717 -0.0802
   90ANI     C4 1910   1.488   2.153   2.221  0.6703  0.4041  0.0932
   90ANI     C5 1911   1.626   2.179   2.230 -0.0531  0.2483 -0.1163
   90ANI     C6 1912   1.711   2.075   2.272  0.0417  0.4090 -0.5867
   90ANI     C7 1913   1.652   1.945   2.298 -0.4555 -0.1566  0.2716
   90ANI     H1 1914   1.309   1.669   2.367 -2.3102 -0.3386 -1.9534
   90ANI     H2 1915   1.271   1.827   2.395  2.1076 -0.5844  1.0171
   90ANI     H3 1916   1.278   1.767   2.226  0.3165  0.6136 -0.5976
   90ANI     H4 1917   1.322   2.029   2.257  0.3041  1.4127  1.2259
   90ANI     H5 1918   1.421   2.233   2.193 -0.5628 -0.0267  1.7278
   90ANI     H6 1919   1.665   2.276   2.201  2.8129 -0.3348  1.5982
   90ANI     H7 1920   1.817   2.096   2.271 -0.1234  1.2358 -1.2621
   90ANI     H8 1921   1.721   1.866   2.327 -1.7058 -1.9605 -1.5147
   91ANI     C1 1922   0.348   2.445   3.286  0.4072 -0.2165  0.1883
   91ANI     O1 1923   0.210   2.431   3.309 -0.8154 -0.6192 -0.3734
   91ANI     C2 1924   0.154   2.311   3.346 -0.3633  0.0861  0.0019
   91ANI     C3 1925   0.055   2.315   3.443  0.4954 -0.2221  0.0056
   91ANI     C4 1926  -0.013   2.204   3.487 -0.2054 -0.4460 -0.3261
   91ANI     C5 1927   0.025   2.078   3.431  0.1607  0.0164 -0.1724
   91ANI     C6 1928   0.130   2.070   3.338 -0.3027 -0.4497 -0.5316
   91ANI     C7 1929   0.203   2.185   3.296  0.2525 -0.7806  0.2844
   91ANI     H1 1930   0.366   2.552   3.269  0.6459 -0.4127 -0.8230
   91ANI     H2 1931   0.400   2.426   3.382  0.7310  1.7925  0.4264
   91ANI     H3 1932   0.387   2.382   3.206 -1.8874 -0.2324 -0.9373
   91ANI     H4 1933   0.029   2.414   3.478 -2.4906 -1.0516  0.2776
   91ANI     H5 1934  -0.095   2.221   3.556 -0.6321  0.9645 -1.1561
   91ANI     H6 1935  -0.022   1.982   3.452 -0.2674  0.5341  1.2506
   91ANI     H7 1936   0.155   1.972   3.298 -0.2145 -0.2194 -1.0418
   91ANI     H8 1937   0.290   2.173   3.232 -0.0089 -3.9640  0.4289
   92ANI     C1 1938   0.042   0.600   1.170  0.5415 -0.2017  0.1034
   92ANI     O1 1939  -0.036   0.479   1.192 -0.0791 -0.2007  0.2682
   92ANI     C2 1940   0.025   0.352   1.193 -0.1656  0.2972 -0.0957
   92ANI     C3 1941  -0.053   0.243   1.169  0.0133  0.6983  0.6211
   92ANI     C4 1942  -0.011   0.113   1.194  0.5270 -0.1197  0.4071
   92ANI     C5 1943   0.128   0.088   1.222 -0.1631 -0.2797  0.4648
   92ANI     C6 1944   0.217   0.203   1.234 -0.2602 -1.0634  0.5187
   92ANI     C7 1945   0.165   0.333   1.220 -0.7332  0.4462  0.4949
   92ANI     H1 1946   0.087   0.610   1.070  0.9189  0.0325  0.2948
   92ANI     H2 1947  -0.028   0.683   1.184  1.4908  0.4911  0.8154
   92ANI     H3 1948   0.121   0.605   1.246 -0.1809  1.4424  0.7802
   92ANI     H4 1949  -0.158   0.257   1.149  0.0438 -0.7961 -0.6711
   92ANI     H5 1950  -0.076   0.028   1.175  1.2364 -0.7021  0.5430
   92ANI     H6 1951   0.155  -0.014   1.247 -1.7186 -0.8603 -0.1368
   92ANI     H7 1952   0.323   0.202   1.260 -0.3392  2.7441  1.2659
   92ANI     H8 1953   0.238   0.411   1.240  2.9032 -2.3552 -1.2473
   93ANI     C1 1954   1.818   2.505   0.678  0.0823  0.7406 -0.0429
   93ANI     O1 1955   1.686   2.537   0.630 -0.1146 -0.1985  0.1612
   93ANI     C2 1956   1.668   2.597   0.507  0.0072  0.5721 -0.0041
   93ANI     C3 1957   1.770   2.651   0.430  0.0464  0.0967  0.3789
   93ANI     C4 1958   1.743   2.713   0.306  0.1907  0.3107  0.1187
   93ANI     C5 1959   1.609   2.712   0.262  0.0539 -0.2233  0.3755
   93ANI     C6 1960   1.506   2.654   0.338 -0.1088  0.1387 -0.2594
   93ANI     C7 1961   1.539   2.597   0.459 -0.0967  0.5558  0.8539
   93ANI     H1 1962   1.869   2.455   0.595  0.4576 -0.6948  1.0319
   93ANI     H2 1963   1.873   2.595   0.707  1.2890  0.4255 -1.2963
   93ANI     H3 1964   1.812   2.439   0.765 -0.2791  3.3405  1.9490
   93ANI     H4 1965   1.872   2.645   0.469  0.3688 -0.2637 -0.5057
   93ANI     H5 1966   1.823   2.757   0.247  1.1564 -1.4986  0.0302
   93ANI     H6 1967   1.596   2.758   0.164 -0.5966 -2.1919 -0.4859
   93ANI     H7 1968   1.407   2.653   0.294  0.2923  0.7718 -1.1965
   93ANI     H8 1969   1.454   2.547   0.504 -1.3604  0.6009 -1.4043
   94ANI     C1 1970   3.383   0.658   1.538  0.0873  0.1772  0.3100
   94ANI     O1 1971   3.408   0.757   1.436 -0.6034 -0.0948  0.0811
   94ANI     C2 1972   3.338   0.878   1.426  0.2873  0.0329  0.0949
   94ANI     C3 1973   3.264   0.923   1.539 -0.0690 -0.0092 -0.0113
   94ANI     C4 1974   3.186   1.045   1.533  0.4666 -1.0457 -0.0652
   94ANI     C5 1975   3.186   1.112   1.410 -0.2488 -0.6167 -0.0537
   94ANI     C6 1976   3.262   1.067   1.302  0.3896  1.1226 -0.1882
   94ANI     C7 1977   3.338   0.943   1.307  0.8650  0.8271  0.5487
   94ANI     H1 1978   3.280   0.622   1.524  0.4447  0.2975 -3.1979
   94ANI     H2 1979   3.437   0.568   1.507  0.9225  0.6554  0.3654
   94ANI     H3 1980   3.396   0.689   1.642 -2.0684  0.2796  0.5693
   94ANI     H4 1981   3.273   0.865   1.631 -1.4408 -0.7073 -0.3023
   94ANI     H5 1982   3.136   1.078   1.624 -2.2169 -0.1496 -1.7954
   94ANI     H6 1983   3.135   1.208   1.399  0.1540 -0.0769  2.6169
   94ANI     H7 1984   3.276   1.138   1.221  2.4466  0.3115 -0.5784
   94ANI     H8 1985   3.396   0.906   1.223 -0.3593 -2.4575  1.1030
   95ANI     C1 1986   0.700   0.817   1.400 -0.1505  0.1737 -0.1650
   95ANI     O1 1987   0.840   0.800   1.439 -0.0107 -0.4237 -0.4079
   95ANI     C2 1988   0.889   0.679   1.471 -0.1871  0.7702 -0.4227
   95ANI     C3 1989   0.807   0.565   1.444  0.0663 -0.0778 -0.8149
   95ANI     C4 1990   0.860   0.438   1.476 -0.9271 -0.4977 -0.0359
   95ANI     C5 1991   0.982   0.432   1.537 -0.5412  0.0065 -0.9219
   95ANI     C6 1992   1.061   0.544   1.561 -0.9202 -0.0035 -0.1177
   95ANI     C7 1993   1.012   0.672   1.528 -0.7624  0.0352 -0.4140
   95ANI     H1 1994   0.628   0.780   1.473 -0.1414 -1.9634 -1.2144
   95ANI     H2 1995   0.682   0.922   1.376  1.5607  0.4927 -0.1568
   95ANI     H3 1996   0.666   0.763   1.311 -1.0696  0.2363  0.1438
   95ANI     H4 1997   0.707   0.565   1.402 -0.3691  0.1543  0.2043
   95ANI     H5 1998   0.795   0.352   1.467 -1.0602 -0.5172  1.0234
   95ANI     H6 1999   1.012   0.333   1.571 -1.0546  1.1560  3.0896
   95ANI     H7 2000   1.160   0.536   1.604 -0.5108  1.1033 -0.8466
   95ANI     H8 2001   1.075   0.757   1.553 -0.3617 -0.5946  0.7442
   96ANI     C1 2002   1.483   0.605   0.852  0.2225 -0.0701 -0.2576
   96ANI     O1 2003   1.363   0.579   0.924  0.3120 -0.0221 -0.9187
   96ANI     C2 2004   1.341   0.615   1.053 -1.0902  0.3042 -0.5237
   96ANI     C3 2005   1.421   0.710   1.116 -0.5335 -0.2262  0.8383
   96ANI     C4 2006   1.394   0.744   1.249  0.2840  0.1948 -0.1255
   96ANI     C5 2007   1.270   0.699   1.300  0.3287 -0.1739 -0.4191
   96ANI     C6 2008   1.199   0.593   1.249  0.6738  0.8959  0.6854
   96ANI     C7 2009   1.234   0.552   1.117  0.5768 -0.7797  0.5944
   96ANI     H1 2010   1.482   0.582   0.744 -2.9664  2.6574 -0.9067
   96ANI     H2 2011   1.506   0.712   0.858  3.0891 -0.6309 -0.3807
   96ANI     H3 2012   1.560   0.545   0.900 -0.4466 -1.6996 -1.1749
   96ANI     H4 2013   1.512   0.742   1.067 -2.4289  1.6831 -1.5365
   96ANI     H5 2014   1.452   0.816   1.306  0.4997  0.4430 -0.6531
   96ANI     H6 2015   1.241   0.740   1.397  0.4051  0.9090 -0.8518
   96ANI     H7 2016   1.112   0.551   1.299  1.3372 -0.6386  0.5738
   96ANI     H8 2017   1.178   0.476   1.063  0.3899 -0.6203  0.5639
   97ANI     C1 2018   0.999   2.243   3.145 -0.0315  0.1061 -0.4641
   97ANI     O1 2019   0.950   2.181   3.263  0.1792 -0.2010  0.2022
   97ANI     C2 2020   0.855   2.240   3.336 -0.0791  0.1980 -0.3762
   97ANI     C3 2021   0.791   2.359   3.298 -0.0392  0.1853  0.1551
   97ANI     C4 2022   0.704   2.416   3.395  0.3311 -0.1281  0.2242
   97ANI     C5 2023   0.671   2.354   3.518  0.3614 -0.8623 -0.1306
   97ANI     C6 2024   0.728   2.233   3.550 -0.4454  0.0675 -0.3950
   97ANI     C7 2025   0.819   2.173   3.455 -0.3045  0.6991 -0.4814
   97ANI     H1 2026   1.042   2.342   3.165  1.0166 -0.5746  0.7210
   97ANI     H2 2027   1.079   2.179   3.106  0.7324  0.2983  0.7390
   97ANI     H3 2028   0.919   2.252   3.071  1.1139  0.2057 -1.7217
   97ANI     H4 2029   0.823   2.414   3.210 -2.9888  0.6339 -0.6765
   97ANI     H5 2030   0.655   2.512   3.385  0.8593 -0.0882 -2.2378
   97ANI     H6 2031   0.614   2.405   3.595 -0.7918 -0.6724 -1.0840
   97ANI     H7 2032   0.702   2.178   3.641  3.1754 -1.8645 -0.4311
   97ANI     H8 2033   0.876   2.083   3.476 -2.7135 -0.5650  0.9045
   98ANI     C1 2034   1.932   2.090   3.688 -0.4471 -0.0840  0.8011
   98ANI     O1 2035   2.049   2.113   3.755 -0.0722  0.4002 -0.0957
   98ANI     C2 2036   2.056   2.211   3.856  0.1557  0.6852  1.0491
   98ANI     C3 2037   2.181   2.269   3.882  0.1089 -0.6240  0.7727
   98ANI     C4 2038   2.204   2.374   3.970 -0.4291  0.3319  0.6633
   98ANI     C5 2039   2.088   2.433   4.025  0.1356  0.1210  0.6271
   98ANI     C6 2040   1.958   2.374   4.006  0.6385 -0.0130 -0.7558
   98ANI     C7 2041   1.953   2.251   3.942 -0.0077  0.3598 -0.1343
   98ANI     H1 2042   1.895   2.188   3.654  1.1207  0.2432  0.0126
   98ANI     H2 2043   1.944   2.028   3.599 -1.7530  0.0248  0.5372
   98ANI     H3 2044   1.862   2.035   3.753  0.7958 -1.5792  0.8996
   98ANI     H4 2045   2.264   2.226   3.825  0.2098  1.8504 -1.0223
   98ANI     H5 2046   2.300   2.422   3.984 -0.9383  1.9493 -1.1616
   98ANI     H6 2047   2.094   2.531   4.071 -2.2707  1.4344 -1.7080
   98ANI     H7 2048   1.872   2.424   4.051  1.0066 -0.6638  0.7197
   98ANI     H8 2049   1.855   2.204   3.932 -0.3967  1.0098  0.6738
   99ANI     C1 2050   1.160   3.434   3.004  0.0763  0.1459  0.0310
   99ANI     O1 2051   1.220   3.447   2.873  0.4987 -0.3873 -0.1833
   99ANI     C2 2052   1.350   3.409   2.849 -0.8093 -0.6998 -0.3298
   99ANI     C3 2053   1.438   3.370   2.954  0.2506  0.2807  0.0660
   99ANI     C4 2054   1.573   3.339   2.925 -0.3212  0.5065 -0.6382
   99ANI     C5 2055   1.615   3.342   2.789  0.0659  0.5644  0.2247
   99ANI     C6 2056   1.524   3.378   2.683 -0.6810 -0.2004 -0.4033
   99ANI     C7 2057   1.394   3.413   2.713 -0.0275  0.1244 -0.4869
   99ANI     H1 2058   1.205   3.512   3.067 -1.1598  1.0626 -0.1964
   99ANI     H2 2059   1.052   3.451   2.998 -0.0772 -1.1672 -1.0934
   99ANI     H3 2060   1.176   3.334   3.045 -4.4753 -0.1360  1.4020
   99ANI     H4 2061   1.401   3.366   3.056 -1.5017 -1.0385 -0.5982
   99ANI     H5 2062   1.637   3.303   3.006 -1.1617  1.6654  0.5454
   99ANI     H6 2063   1.717   3.314   2.767 -0.3601  0.7073 -2.0766
   99ANI     H7 2064   1.558   3.383   2.580  2.0555 -2.0240  0.3568
   99ANI     H8 2065   1.325   3.443   2.635  1.2863 -2.9783 -2.9423
  100ANI     C1 2066   1.700   1.896   1.211  0.9426  0.6434 -0.0319
  100ANI     O1 2067   1.834   1.959   1.221 -0.2269 -0.6222  0.0081
  100ANI     C2 2068   1.871   2.059   1.130 -0.7363  0.1960 -0.0847
  100ANI     C3 2069   1.835   2.056   0.998  0.4227  0.1979 -0.1189
  100ANI     C4 2070   1.887   2.150   0.905 -0.0763  0.1206 -0.3152
  100ANI     C5 2071   1.981   2.249   0.948  0.7235 -0.0395  0.0885
  100ANI     C6 2072   2.017   2.252   1.083  0.0409 -0.2071  0.1165
  100ANI     C7 2073   1.954   2.163   1.176  0.8232 -0.0674  0.2596
  100ANI     H1 2074   1.687   1.810   1.279  1.5764 -0.4647 -1.3035
  100ANI     H2 2075   1.616   1.965   1.226  2.1849  2.1845 -0.0676
  100ANI     H3 2076   1.684   1.849   1.114 -0.4401 -1.6785  1.2717
  100ANI     H4 2077   1.753   1.993   0.965  1.1386 -0.8295  0.0098
  100ANI     H5 2078   1.845   2.139   0.805 -0.8349 -0.4736  0.0658
  100ANI     H6 2079   2.027   2.320   0.880  0.4460  1.5753  1.5413
  100ANI     H7 2080   2.083   2.325   1.130  1.3674 -0.8083 -0.7662
  100ANI     H8 2081   1.976   2.159   1.283 -0.8110 -0.9333  0.5906
  101ANI     C1 2082   2.645   2.412   1.037  0.4348  0.0472  0.6251
  101ANI     O1 2083   2.512   2.378   0.984  0.1725  0.0623 -0.7625
  101ANI     C2 2084   2.505   2.276   0.897 -0.3503  0.3819  0.1117
  101ANI     C3 2085   2.618   2.238   0.820  0.3612 -0.3423  0.3411
  101ANI     C4 2086   2.605   2.129   0.735 -0.2576  0.2899 -0.2952
  101ANI     C5 2087   2.482   2.056   0.728  0.3517  0.0919  0.4357
  101ANI     C6 2088   2.369   2.094   0.805  0.0950 -0.7961  0.1134
  101ANI     C7 2089   2.382   2.208   0.882 -0.3026  0.6960 -0.0085
  101ANI     H1 2090   2.698   2.481   0.970  1.9495 -0.4381  1.2941
  101ANI     H2 2091   2.633   2.472   1.127 -1.2028  1.8065 -0.7313
  101ANI     H3 2092   2.706   2.323   1.058 -1.7934 -1.8098 -0.5517
  101ANI     H4 2093   2.715   2.287   0.821  0.9877 -1.5618 -0.6031
  101ANI     H5 2094   2.681   2.106   0.662  1.0650 -0.9181  1.4282
  101ANI     H6 2095   2.465   1.980   0.652  2.3717 -0.2669  0.3010
  101ANI     H7 2096   2.278   2.035   0.802 -1.4386  1.3499  2.1582
  101ANI     H8 2097   2.302   2.221   0.954 -0.1310 -0.7895  0.4581
  102ANI     C1 2098   1.282   2.779   3.447 -0.1404 -0.8083 -0.4062
  102ANI     O1 2099   1.161   2.706   3.474 -0.4605 -0.3239  0.2034
  102ANI     C2 2100   1.121   2.675   3.606 -0.3534  0.0292  0.4854
  102ANI     C3 2101   1.006   2.596   3.621 -0.0501  0.0665 -0.1015
  102ANI     C4 2102   0.980   2.545   3.749 -0.2210  0.0693 -0.3919
  102ANI     C5 2103   1.056   2.590   3.861  0.3411  0.0757 -0.0762
  102ANI     C6 2104   1.168   2.678   3.848 -0.6026 -0.3543  0.3229
  102ANI     C7 2105   1.206   2.720   3.713  0.2921 -0.6735 -0.2026
  102ANI     H1 2106   1.368   2.733   3.497  1.9068  1.0629 -2.1049
  102ANI     H2 2107   1.307   2.776   3.340 -0.3414  1.2339 -0.5348
  102ANI     H3 2108   1.280   2.883   3.483 -0.0933 -0.0892 -2.4406
  102ANI     H4 2109   0.957   2.555   3.533  1.4376 -0.8222 -0.5309
  102ANI     H5 2110   0.906   2.466   3.763 -1.2891  1.1387  0.0418
  102ANI     H6 2111   1.030   2.546   3.956 -0.4808 -0.6650 -0.6395
  102ANI     H7 2112   1.211   2.721   3.937 -0.5362  0.1436  0.0502
  102ANI     H8 2113   1.297   2.779   3.700 -0.8269  1.1036 -0.0589
  103ANI     C1 2114   1.105   3.283   0.860 -0.1079 -0.0430 -0.4041
  103ANI     O1 2115   0.979   3.222   0.911 -0.3848 -0.5501  0.3374
  103ANI     C2 2116   0.978   3.130   1.012 -0.2043  0.6190  0.5694
  103ANI     C3 2117   1.096   3.066   1.059  0.3138 -0.3316 -0.7217
  103ANI     C4 2118   1.096   2.981   1.171  0.0441  0.1460  0.0494
  103ANI     C5 2119   0.971   2.935   1.232 -0.0887 -0.5707  0.5298
  103ANI     C6 2120   0.855   3.006   1.184  0.2611  0.0326  0.5212
  103ANI     C7 2121   0.857   3.096   1.074  0.1671 -0.1158  0.2463
  103ANI     H1 2122   1.169   3.307   0.946 -1.0773 -0.8343  0.5691
  103ANI     H2 2123   1.165   3.208   0.807  2.1845  0.8269  0.9003
  103ANI     H3 2124   1.088   3.376   0.806 -0.1334  0.7483  0.9316
  103ANI     H4 2125   1.190   3.099   1.015  0.0181  0.3433 -0.8467
  103ANI     H5 2126   1.191   2.932   1.191  0.1713 -0.4203 -1.8291
  103ANI     H6 2127   0.976   2.862   1.312  0.0143 -1.3006 -0.1386
  103ANI     H7 2128   0.763   2.992   1.241  0.0818  0.5065  0.3456
  103ANI     H8 2129   0.760   3.132   1.039  0.7704 -0.2142 -1.6267
  104ANI     C1 2130   2.397   2.208   3.065 -0.2703 -0.5693  0.6796
  104ANI     O1 2131   2.297   2.153   2.982  0.2369  0.2597  0.3128
  104ANI     C2 2132   2.162   2.190   3.003 -0.1856  0.3888 -0.3546
  104ANI     C3 2133   2.115   2.272   3.110 -0.0400  0.7125  0.4094
  104ANI     C4 2134   1.980   2.304   3.126  0.3721  0.3794  0.2140
  104ANI     C5 2135   1.883   2.241   3.046 -0.0416  0.6401 -0.0226
  104ANI     C6 2136   1.927   2.148   2.948  0.1756 -0.2091 -0.3783
  104ANI     C7 2137   2.068   2.127   2.922  0.0229 -0.9975  0.8361
  104ANI     H1 2138   2.377   2.198   3.172 -0.6367 -1.4359  0.5285
  104ANI     H2 2139   2.492   2.171   3.024  0.0367  1.3118 -0.3628
  104ANI     H3 2140   2.410   2.317   3.057  1.5961 -0.7706  0.7784
  104ANI     H4 2141   2.187   2.313   3.181 -1.5284  4.9955 -0.4005
  104ANI     H5 2142   1.946   2.371   3.204  1.0573 -2.5391  3.1109
  104ANI     H6 2143   1.776   2.249   3.065 -0.4682  1.5083 -2.5548
  104ANI     H7 2144   1.852   2.102   2.885 -0.9069  1.0274 -0.0205
  104ANI     H8 2145   2.094   2.055   2.845 -1.7010 -1.0158  0.2273
  105ANI     C1 2146   1.956   0.663   1.555 -0.8718  0.0412 -0.0210
  105ANI     O1 2147   2.075   0.677   1.483  1.0675 -0.1488 -0.0805
  105ANI     C2 2148   2.169   0.587   1.463  0.6427 -0.6123 -0.4163
  105ANI     C3 2149   2.260   0.607   1.360  0.7532 -0.4599  0.7238
  105ANI     C4 2150   2.355   0.518   1.332 -0.3392  0.2275 -0.3745
  105ANI     C5 2151   2.368   0.404   1.410  0.0884  0.5801  0.3224
  105ANI     C6 2152   2.277   0.377   1.513 -0.0147 -0.2294  0.7256
  105ANI     C7 2153   2.175   0.473   1.544 -0.2647 -0.5453  0.8325
  105ANI     H1 2154   1.990   0.666   1.659 -0.6486 -2.5027  0.0209
  105ANI     H2 2155   1.887   0.743   1.526  1.3570  2.3630  0.8713
  105ANI     H3 2156   1.904   0.570   1.531 -0.7800  0.2166 -0.9131
  105ANI     H4 2157   2.247   0.697   1.300 -1.3704 -0.6227  0.8966
  105ANI     H5 2158   2.434   0.541   1.262 -0.1157  0.6781  0.0199
  105ANI     H6 2159   2.449   0.333   1.395 -2.7640 -3.4018  2.5596
  105ANI     H7 2160   2.279   0.291   1.580  1.4933  0.3137  1.3880
  105ANI     H8 2161   2.109   0.461   1.630  0.5455  0.3684  1.5873
  106ANI     C1 2162   0.762   3.028   3.413 -0.0647 -0.2154 -0.6522
  106ANI     O1 2163   0.733   2.893   3.432 -0.3906  0.0120 -0.2448
  106ANI     C2 2164   0.605   2.856   3.453  0.5614 -0.0035  0.0785
  106ANI     C3 2165   0.495   2.922   3.400  0.7644  0.3769  0.2705
  106ANI     C4 2166   0.368   2.873   3.431  0.7269 -0.3339  0.0354
  106ANI     C5 2167   0.350   2.759   3.512  0.7149  0.5688 -0.0746
  106ANI     C6 2168   0.454   2.688   3.566  0.2814  0.4803  0.2084
  106ANI     C7 2169   0.583   2.734   3.529 -0.7561 -0.3758 -0.3936
  106ANI     H1 2170   0.864   3.063   3.435 -0.3800  0.3502 -0.0503
  106ANI     H2 2171   0.741   3.052   3.308  1.0350  0.7347 -0.6676
  106ANI     H3 2172   0.691   3.089   3.471 -0.8723 -0.5282 -1.2874
  106ANI     H4 2173   0.509   3.012   3.342 -0.8789  0.1899 -0.4317
  106ANI     H5 2174   0.283   2.930   3.395  0.0562 -1.9173 -0.9056
  106ANI     H6 2175   0.252   2.719   3.539 -0.3832  2.3714 -1.3198
  106ANI     H7 2176   0.440   2.602   3.630 -0.4144 -0.9228 -1.8014
  106ANI     H8 2177   0.670   2.680   3.567 -0.4197 -1.5377 -2.7387
  107ANI     C1 2178   3.032   2.063   2.948  0.8868 -0.1467  0.2331
  107ANI     O1 2179   3.163   2.110   2.987 -0.2618  0.1732 -0.6323
  107ANI     C2 2180   3.193   2.245   3.002  0.1209  0.8592  0.0912
  107ANI     C3 2181   3.323   2.283   3.041  0.4484 -0.3494  0.0865
  107ANI     C4 2182   3.359   2.420   3.060  0.0092  0.5887  0.3114
  107ANI     C5 2183   3.260   2.515   3.057 -0.1996 -0.4034 -0.0009
  107ANI     C6 2184   3.130   2.481   3.027 -0.1403  0.1749 -0.5036
  107ANI     C7 2185   3.096   2.349   2.989  0.6741 -0.5080 -0.5113
  107ANI     H1 2186   3.011   2.106   2.849  0.2976  0.9432  0.8285
  107ANI     H2 2187   3.026   1.955   2.930 -1.1617 -0.0499  0.2542
  107ANI     H3 2188   2.948   2.088   3.014  0.2726 -1.0562 -0.1920
  107ANI     H4 2189   3.396   2.205   3.060  0.7770  0.8864  4.2128
  107ANI     H5 2190   3.459   2.436   3.100 -0.0106 -0.0344  0.6120
  107ANI     H6 2191   3.280   2.617   3.090 -1.4592  0.1582 -0.9312
  107ANI     H7 2192   3.059   2.562   3.011 -0.8516 -0.5015 -0.7804
  107ANI     H8 2193   2.997   2.324   2.953  0.0097  1.5736 -0.1756
  108ANI     C1 2194   3.008   0.480   3.075 -0.3316  0.0561 -0.3352
  108ANI     O1 2195   3.058   0.368   2.999  0.3847 -0.0869  0.3867
  108ANI     C2 2196   3.103   0.250   3.059  0.1461 -0.7530 -0.2042
  108ANI     C3 2197   3.122   0.141   2.977  1.2330  0.1787 -0.0098
  108ANI     C4 2198   3.160   0.019   3.044 -0.0646 -0.4996  0.1808
  108ANI     C5 2199   3.199   0.017   3.178 -0.0017  0.5731  1.3342
  108ANI     C6 2200   3.206   0.139   3.253  0.1330  0.0415  0.2820
  108ANI     C7 2201   3.147   0.252   3.196  0.3528 -0.1781 -0.2448
  108ANI     H1 2202   2.980   0.569   3.016 -0.3994  0.0679 -0.2854
  108ANI     H2 2203   2.926   0.449   3.140  0.8162 -1.0991  0.5660
  108ANI     H3 2204   3.088   0.524   3.136  0.8165  0.1214 -1.8433
  108ANI     H4 2205   3.080   0.147   2.877 -0.6465  1.1955  0.8220
  108ANI     H5 2206   3.148  -0.074   2.989  0.1462  0.1373 -0.9644
  108ANI     H6 2207   3.232  -0.079   3.217 -1.4174 -0.9173 -1.0278
  108ANI     H7 2208   3.254   0.144   3.350 -0.0887 -0.2673  0.4100
  108ANI     H8 2209   3.147   0.343   3.256  0.6750 -1.0278  1.0468
  109ANI     C1 2210   0.457   2.118   1.549 -0.1214  0.3552  0.0007
  109ANI     O1 2211   0.508   1.983   1.557 -0.6775 -0.3878 -0.1206
  109ANI     C2 2212   0.478   1.889   1.466  0.4083 -0.4000  0.7991
  109ANI     C3 2213   0.380   1.919   1.365 -0.3197 -0.5271  0.2495
  109ANI     C4 2214   0.348   1.826   1.268  0.3516 -0.0074 -0.8339
  109ANI     C5 2215   0.408   1.696   1.276  0.3057  0.0349  0.8098
  109ANI     C6 2216   0.509   1.668   1.379 -0.2940  0.3621  0.3930
  109ANI     C7 2217   0.542   1.766   1.473 -0.0061  1.5782  0.5498
  109ANI     H1 2218   0.493   2.160   1.455  0.0768  0.1053 -0.0353
  109ANI     H2 2219   0.348   2.120   1.557 -0.1213 -0.5735  0.3365
  109ANI     H3 2220   0.490   2.178   1.635 -1.8164  0.0728  0.8816
  109ANI     H4 2221   0.337   2.019   1.368 -0.0947 -0.3332 -2.1083
  109ANI     H5 2222   0.272   1.852   1.194  0.7994  0.7449 -1.0376
  109ANI     H6 2223   0.382   1.618   1.205  0.3266 -0.9044  1.8127
  109ANI     H7 2224   0.560   1.573   1.388 -1.6308 -0.3492  0.5272
  109ANI     H8 2225   0.607   1.738   1.555 -0.7289 -2.0260  0.0112
  110ANI     C1 2226   2.354   1.403   0.732  0.3216  0.0135 -0.5340
  110ANI     O1 2227   2.242   1.500   0.760  0.5792 -0.2634 -0.5948
  110ANI     C2 2228   2.251   1.597   0.858  0.2972 -0.3829 -0.5006
  110ANI     C3 2229   2.136   1.676   0.890 -0.4105  0.3057 -0.6094
  110ANI     C4 2230   2.139   1.780   0.974 -0.7102  0.6590 -0.7564
  110ANI     C5 2231   2.260   1.809   1.036 -0.8138  0.2531  0.7770
  110ANI     C6 2232   2.384   1.732   1.009  1.0765  0.0235 -0.0581
  110ANI     C7 2233   2.373   1.627   0.923  0.2118  0.4727 -0.6337
  110ANI     H1 2234   2.369   1.352   0.828  1.5290 -0.1108 -0.7790
  110ANI     H2 2235   2.321   1.326   0.661  1.5869  0.8285 -2.0287
  110ANI     H3 2236   2.439   1.448   0.679  0.7087 -2.4757 -2.1122
  110ANI     H4 2237   2.046   1.654   0.833  0.3722 -2.5648 -0.8062
  110ANI     H5 2238   2.051   1.843   0.985 -1.4547 -0.7726  1.9391
  110ANI     H6 2239   2.271   1.893   1.104 -1.8972  0.0541  1.2091
  110ANI     H7 2240   2.481   1.745   1.057  1.3665 -1.1289 -0.3364
  110ANI     H8 2241   2.463   1.568   0.912  1.5553  2.5446 -1.0810
  111ANI     C1 2242   2.195   2.213   0.517  0.4359 -0.1692  0.2488
  111ANI     O1 2243   2.060   2.175   0.497  0.8493  0.2845  0.1330
  111ANI     C2 2244   2.032   2.069   0.419  0.2276  0.4971 -0.3703
  111ANI     C3 2245   1.896   2.052   0.387  0.1940  0.2885  0.6001
  111ANI     C4 2246   1.861   1.948   0.296 -0.1883  0.8860 -0.2534
  111ANI     C5 2247   1.960   1.855   0.252 -0.6919  0.6870 -0.5119
  111ANI     C6 2248   2.091   1.871   0.293 -0.5062  0.5700  0.0877
  111ANI     C7 2249   2.133   1.987   0.363  0.1278 -0.3622 -0.5499
  111ANI     H1 2250   2.249   2.223   0.423 -0.3639  2.1856  0.0194
  111ANI     H2 2251   2.194   2.307   0.573 -3.2872  1.2176 -1.9764
  111ANI     H3 2252   2.244   2.133   0.574 -0.1124  0.0431  1.0344
  111ANI     H4 2253   1.816   2.109   0.432  0.7124  1.1076  0.4960
  111ANI     H5 2254   1.758   1.928   0.270 -0.4135 -0.6649  1.7230
  111ANI     H6 2255   1.928   1.770   0.192 -0.2777 -0.0302  0.2763
  111ANI     H7 2256   2.172   1.808   0.258 -2.1309 -0.2645 -2.3312
  111ANI     H8 2257   2.240   2.007   0.365 -0.1190  1.3455 -2.4406
  112ANI     C1 2258   2.455   2.855   0.935  0.6606 -0.0906  0.2557
  112ANI     O1 2259   2.497   2.985   0.908  0.1079 -0.3031 -0.0836
  112ANI     C2 2260   2.577   3.042   0.999  0.3763  0.0801  0.5248
  112ANI     C3 2261   2.644   2.975   1.109 -0.0050 -0.0735  0.7312
  112ANI     C4 2262   2.747   3.040   1.175 -0.0748  0.6837  0.2168
  112ANI     C5 2263   2.790   3.168   1.152 -0.0338  0.2297  0.3257
  112ANI     C6 2264   2.720   3.242   1.056  1.3517  0.3935  0.5773
  112ANI     C7 2265   2.617   3.179   0.978  0.8617  0.7816  0.2334
  112ANI     H1 2266   2.380   2.872   1.013 -0.1607  0.6289 -0.6802
  112ANI     H2 2267   2.404   2.812   0.847 -1.6759  2.0160  0.5261
  112ANI     H3 2268   2.539   2.791   0.965  1.5186  0.7335 -0.3701
  112ANI     H4 2269   2.642   2.869   1.131  2.0150 -0.1516  0.6602
  112ANI     H5 2270   2.798   2.984   1.254 -4.0684  1.7003  3.7144
  112ANI     H6 2271   2.869   3.207   1.215 -1.3188  0.4057  1.8528
  112ANI     H7 2272   2.742   3.346   1.035 -0.1869  1.0787  2.1856
  112ANI     H8 2273   2.568   3.239   0.903 -1.7069  2.2847  3.0278
  113ANI     C1 2274   2.869   1.496   3.671  0.3880 -0.4393  0.5605
  113ANI     O1 2275   2.784   1.385   3.625  0.1681 -0.1901 -0.3537
  113ANI     C2 2276   2.726   1.296   3.708  0.5160  0.0635  0.2321
  113ANI     C3 2277   2.761   1.290   3.849  0.1845  0.8105  0.1267
  113ANI     C4 2278   2.695   1.198   3.931  0.1031 -0.1703 -0.5320
  113ANI     C5 2279   2.593   1.119   3.888  0.3298  0.2153  0.0603
  113ANI     C6 2280   2.557   1.129   3.755 -0.0590  0.4225  0.1760
  113ANI     C7 2281   2.624   1.211   3.663  0.4372  0.1367 -0.4750
  113ANI     H1 2282   2.959   1.449   3.713  1.8126  1.3112 -0.4551
  113ANI     H2 2283   2.898   1.566   3.592 -1.0045 -0.5258 -0.0453
  113ANI     H3 2284   2.822   1.554   3.752 -0.2775  0.1705 -0.2538
  113ANI     H4 2285   2.845   1.343   3.893  0.0057  1.2436 -0.0486
  113ANI     H5 2286   2.715   1.199   4.038 -0.6720  0.8945 -0.3896
  113ANI     H6 2287   2.562   1.039   3.954  1.9044 -1.1999 -0.8676
  113ANI     H7 2288   2.491   1.049   3.721  0.5098 -1.1919  2.7417
  113ANI     H8 2289   2.598   1.201   3.558 -2.2223  0.2424  0.1389
  114ANI     C1 2290   0.086   0.332   0.184 -0.6040 -0.3372  0.0189
  114ANI     O1 2291   0.048   0.197   0.151 -0.1802  0.0003  0.2011
  114ANI     C2 2292   0.030   0.099   0.243 -0.5804 -0.1294 -0.4541
  114ANI     C3 2293  -0.015  -0.021   0.193 -0.0644  0.1581 -0.3917
  114ANI     C4 2294  -0.038  -0.126   0.281 -0.0347 -0.1888 -0.3616
  114ANI     C5 2295  -0.008  -0.107   0.418  0.4190 -0.5459  0.4394
  114ANI     C6 2296   0.039   0.014   0.471 -0.2803 -0.4757  0.3194
  114ANI     C7 2297   0.061   0.119   0.374  0.3690 -0.0276  0.0125
  114ANI     H1 2298   0.191   0.340   0.213 -1.3847  0.5630  2.7674
  114ANI     H2 2299   0.083   0.397   0.096 -0.8574  2.6938  2.1768
  114ANI     H3 2300   0.016   0.375   0.257 -0.3598  1.5233 -0.7916
  114ANI     H4 2301  -0.038  -0.041   0.088  1.9765 -2.1866 -0.4377
  114ANI     H5 2302  -0.071  -0.222   0.244 -1.7824  0.2337  0.0669
  114ANI     H6 2303  -0.022  -0.192   0.484  1.1302  0.3624  1.7978
  114ANI     H7 2304   0.073   0.015   0.574 -1.6921  0.8514  0.7935
  114ANI     H8 2305   0.105   0.211   0.411  1.4326 -0.8126  0.7338
  115ANI     C1 2306   0.495   0.353   0.177 -0.1217  0.2578 -0.6869
  115ANI     O1 2307   0.402   0.447   0.125  0.0992  0.2916 -0.2732
  115ANI     C2 2308   0.442   0.576   0.086  0.0918  0.7553 -0.1439
  115ANI     C3 2309   0.362   0.641  -0.006 -0.3197 -0.3297  0.0845
  115ANI     C4 2310   0.406   0.764  -0.061  0.5208  0.2506  0.5463
  115ANI     C5 2311   0.522   0.820  -0.007 -0.6085 -0.4462 -0.2417
  115ANI     C6 2312   0.591   0.759   0.094 -0.0286  0.6631  0.4874
  115ANI     C7 2313   0.555   0.636   0.140  0.9803  0.7493 -0.1501
  115ANI     H1 2314   0.573   0.341   0.101  1.1588 -2.1820  0.9460
  115ANI     H2 2315   0.531   0.391   0.273 -1.3279 -2.2776  0.8323
  115ANI     H3 2316   0.454   0.252   0.185 -1.7261  0.9955  0.6171
  115ANI     H4 2317   0.269   0.592  -0.031 -1.1809  1.5354 -0.4238
  115ANI     H5 2318   0.348   0.806  -0.143  1.2897  0.3097  0.0338
  115ANI     H6 2319   0.559   0.915  -0.044  1.8283 -0.7051  1.3450
  115ANI     H7 2320   0.668   0.820   0.142 -0.6311  0.1034  2.2087
  115ANI     H8 2321   0.605   0.587   0.223 -0.4865 -2.0496 -0.8257
  116ANI     C1 2322   0.379   0.243   0.521 -0.0407  0.3239  0.0698
  116ANI     O1 2323   0.509   0.236   0.471  0.1202  0.0806  0.0257
  116ANI     C2 2324   0.599   0.142   0.525 -0.1160  0.0688  0.3183
  116ANI     C3 2325   0.575   0.034   0.619  0.0061  0.0730  0.6221
  116ANI     C4 2326   0.682  -0.039   0.682 -0.8237  0.1448 -0.4302
  116ANI     C5 2327   0.814  -0.006   0.652  0.1798 -0.7846 -0.4917
  116ANI     C6 2328   0.842   0.095   0.560  0.1441 -0.1188  0.9589
  116ANI     C7 2329   0.734   0.169   0.492 -0.4749 -0.4594  0.1198
  116ANI     H1 2330   0.377   0.247   0.631 -3.6737  1.0166  0.0273
  116ANI     H2 2331   0.338   0.340   0.488 -1.0889 -0.1397  0.0258
  116ANI     H3 2332   0.314   0.163   0.484  0.0120  0.2421  0.1554
  116ANI     H4 2333   0.474   0.003   0.646 -0.3263  0.3572 -0.2933
  116ANI     H5 2334   0.665  -0.126   0.745  4.0236 -0.4281  0.2636
  116ANI     H6 2335   0.896  -0.070   0.682 -1.7710 -1.8945  2.6920
  116ANI     H7 2336   0.946   0.114   0.532  0.6911 -1.6008  1.9174
  116ANI     H8 2337   0.759   0.249   0.424  4.1119 -2.7789 -1.0799
  117ANI     C1 2338   1.521   1.240   2.975 -0.5623  0.1748 -0.5409
  117ANI     O1 2339   1.568   1.173   2.859  0.2571  0.3208  0.0341
  117ANI     C2 2340   1.687   1.204   2.797  0.4253  0.2053 -0.6158
  117ANI     C3 2341   1.789   1.277   2.865  0.4431 -0.0443 -0.3118
  117ANI     C4 2342   1.913   1.292   2.802  0.2582 -0.1140 -0.2280
  117ANI     C5 2343   1.931   1.246   2.673 -0.1800 -0.5493  0.7282
  117ANI     C6 2344   1.823   1.181   2.607 -0.3147 -0.2405 -0.2323
  117ANI     C7 2345   1.698   1.159   2.666 -0.2571 -0.2451 -0.9010
  117ANI     H1 2346   1.412   1.239   2.979 -0.5684 -0.0690 -0.7250
  117ANI     H2 2347   1.558   1.192   3.067 -1.0985  0.4107 -0.2049
  117ANI     H3 2348   1.559   1.343   2.969 -1.3382  0.4664 -0.4451
  117ANI     H4 2349   1.773   1.313   2.966  3.2241 -0.7597  0.4376
  117ANI     H5 2350   1.987   1.358   2.846 -1.2087  0.4004  1.4943
  117ANI     H6 2351   2.024   1.276   2.626 -0.2366 -1.1884  0.2008
  117ANI     H7 2352   1.835   1.146   2.505 -1.0487  1.5640 -0.9613
  117ANI     H8 2353   1.616   1.099   2.628 -0.7031 -0.9154  1.0483
  118ANI     C1 2354   2.414   0.055   1.065  0.4409  0.0494  0.1489
  118ANI     O1 2355   2.387   0.085   0.928  0.3722  0.0858  0.1488
  118ANI     C2 2356   2.330   0.203   0.880 -0.1523  0.6603  0.5407
  118ANI     C3 2357   2.274   0.289   0.969  1.0201 -0.1020 -0.3025
  118ANI     C4 2358   2.218   0.414   0.920 -0.3982 -0.2744 -0.0305
  118ANI     C5 2359   2.215   0.447   0.791 -0.0726  0.3953 -0.0358
  118ANI     C6 2360   2.269   0.349   0.701  0.5058  0.0482  0.1127
  118ANI     C7 2361   2.326   0.228   0.746  0.7717  0.2001  0.6116
  118ANI     H1 2362   2.482   0.124   1.117  1.5598 -2.8763  2.7480
  118ANI     H2 2363   2.319   0.071   1.118  0.2502  3.7256 -1.1450
  118ANI     H3 2364   2.437  -0.051   1.078  1.2778  0.1710 -0.3170
  118ANI     H4 2365   2.265   0.277   1.076 -0.7686  1.1985 -0.2848
  118ANI     H5 2366   2.185   0.490   0.991 -0.7531  2.1372 -2.6534
  118ANI     H6 2367   2.180   0.545   0.759  0.0323  0.7240  0.8416
  118ANI     H7 2368   2.258   0.378   0.597 -1.0118 -0.6562  0.0627
  118ANI     H8 2369   2.358   0.156   0.671 -0.2736 -0.5993  0.9208
  119ANI     C1 2370   2.825   0.729   3.258  0.3699  0.5353  0.7258
  119ANI     O1 2371   2.698   0.725   3.191 -0.5162  0.0365 -0.3659
  119ANI     C2 2372   2.645   0.826   3.105 -0.1642 -0.4112  0.4205
  119ANI     C3 2373   2.529   0.802   3.025  0.0782 -0.4079  0.0356
  119ANI     C4 2374   2.479   0.893   2.932 -0.3788  1.4628 -0.2332
  119ANI     C5 2375   2.528   1.027   2.937 -0.1966  0.4413 -0.4109
  119ANI     C6 2376   2.630   1.061   3.022  0.5537 -0.4929 -0.5934
  119ANI     C7 2377   2.702   0.956   3.097  0.3357  0.3277  0.9501
  119ANI     H1 2378   2.827   0.663   3.346 -0.2818  1.3338  1.3479
  119ANI     H2 2379   2.913   0.699   3.199 -0.0680 -1.5505  1.1004
  119ANI     H3 2380   2.839   0.829   3.301 -1.8162  1.4921 -0.7146
  119ANI     H4 2381   2.494   0.699   3.026 -0.0834 -0.3484  0.8242
  119ANI     H5 2382   2.393   0.873   2.868 -0.3343  1.0474 -0.1663
  119ANI     H6 2383   2.488   1.100   2.867 -2.1035 -0.2377 -0.0707
  119ANI     H7 2384   2.669   1.163   3.030 -1.2862  0.2483 -0.9080
  119ANI     H8 2385   2.794   0.973   3.152  2.1589 -0.4728 -1.6946
  120ANI     C1 2386   3.153   0.461   0.865  0.1477  0.8672  0.1674
  120ANI     O1 2387   3.091   0.583   0.911  0.2239 -0.5436  0.4910
  120ANI     C2 2388   3.158   0.701   0.912 -0.0345 -0.5233 -0.6953
  120ANI     C3 2389   3.292   0.707   0.861  0.5331  0.0295 -0.8814
  120ANI     C4 2390   3.362   0.830   0.871  0.0432  0.4610 -0.3028
  120ANI     C5 2391   3.305   0.946   0.928 -0.0106  0.3850 -0.7387
  120ANI     C6 2392   3.177   0.937   0.975  0.0333  0.4673 -0.0618
  120ANI     C7 2393   3.099   0.818   0.971  0.1924  0.0314  0.3434
  120ANI     H1 2394   3.183   0.472   0.761 -0.2925 -0.8226 -0.1480
  120ANI     H2 2395   3.237   0.425   0.925 -0.6270 -1.0072  0.1648
  120ANI     H3 2396   3.073   0.389   0.844  0.7921  0.2331 -0.1305
  120ANI     H4 2397   3.334   0.623   0.807 -0.5171  0.4850 -2.4387
  120ANI     H5 2398   3.460   0.837   0.824  0.5254 -1.8367  0.2675
  120ANI     H6 2399   3.359   1.041   0.928  1.0231 -0.1967 -0.2430
  120ANI     H7 2400   3.124   1.020   1.020 -0.8320  0.5850 -1.2913
  120ANI     H8 2401   3.005   0.826   1.025 -0.9060 -0.2954 -1.4498
  121ANI     C1 2402   1.599   3.019   2.767  0.0178  0.3008  0.6979
  121ANI     O1 2403   1.677   3.024   2.645  0.1151 -0.0733  0.0425
  121ANI     C2 2404   1.650   2.950   2.527  0.1868 -0.1422 -0.3847
  121ANI     C3 2405   1.751   2.943   2.432 -0.0384 -0.4416  0.3393
  121ANI     C4 2406   1.735   2.871   2.311 -0.3352 -0.1569  0.0410
  121ANI     C5 2407   1.610   2.814   2.288 -0.3963  0.0617 -0.3243
  121ANI     C6 2408   1.504   2.826   2.380 -0.2275  0.3275 -0.2786
  121ANI     C7 2409   1.524   2.896   2.498  0.1025 -0.5826 -0.6087
  121ANI     H1 2410   1.659   3.052   2.853 -0.5317 -0.6655  1.4576
  121ANI     H2 2411   1.514   3.085   2.747  0.8501  0.6689 -1.9043
  121ANI     H3 2412   1.550   2.921   2.766  0.7858 -0.0906  0.3024
  121ANI     H4 2413   1.846   2.988   2.460 -0.2229 -0.5095  1.0897
  121ANI     H5 2414   1.809   2.860   2.233 -0.9463 -0.0002 -0.5731
  121ANI     H6 2415   1.584   2.757   2.199 -0.5041  0.6784 -0.6949
  121ANI     H7 2416   1.405   2.783   2.365 -0.8121  1.2684  0.8144
  121ANI     H8 2417   1.447   2.900   2.575 -1.3103 -0.6702 -1.9859
  122ANI     C1 2418   1.887   1.570   3.665  0.3202  0.4687 -0.5312
  122ANI     O1 2419   1.760   1.594   3.595 -0.3825 -0.1568  0.1186
  122ANI     C2 2420   1.676   1.699   3.610  0.1451 -0.5387 -0.4595
  122ANI     C3 2421   1.695   1.804   3.703  0.4356 -0.1195  0.0271
  122ANI     C4 2422   1.612   1.919   3.705 -0.0690 -0.0567 -0.0247
  122ANI     C5 2423   1.504   1.929   3.609 -0.1112 -0.1121  0.4264
  122ANI     C6 2424   1.484   1.822   3.522 -0.4781 -0.0475 -0.2446
  122ANI     C7 2425   1.567   1.703   3.523  0.6050 -0.4136 -0.6757
  122ANI     H1 2426   1.940   1.483   3.625  0.6547 -0.5133  1.9480
  122ANI     H2 2427   1.950   1.660   3.663 -0.9756  1.3993 -0.3502
  122ANI     H3 2428   1.865   1.549   3.770  2.6166 -2.4937 -0.5848
  122ANI     H4 2429   1.775   1.792   3.776  0.8189  0.7160 -0.2489
  122ANI     H5 2430   1.630   2.000   3.775 -1.0301  0.2388 -0.1245
  122ANI     H6 2431   1.445   2.020   3.612 -0.0503 -0.0767  0.5918
  122ANI     H7 2432   1.396   1.831   3.458 -1.6266  1.3653  1.4600
  122ANI     H8 2433   1.552   1.628   3.446 -0.3085  0.5566 -1.4432
  123ANI     C1 2434   1.005   0.454   2.788 -0.7961  0.4117 -0.3369
  123ANI     O1 2435   0.944   0.537   2.691 -0.2697  0.0105  0.7615
  123ANI     C2 2436   0.914   0.670   2.700  0.0019 -0.0092  0.3863
  123ANI     C3 2437   0.804   0.711   2.616 -0.3473 -0.4699  0.3722
  123ANI     C4 2438   0.757   0.841   2.621 -0.1759 -0.3907 -0.3657
  123ANI     C5 2439   0.816   0.929   2.718 -0.1217 -1.1204 -0.0483
  123ANI     C6 2440   0.931   0.891   2.793 -0.2636 -0.1322  0.1012
  123ANI     C7 2441   0.981   0.759   2.779  0.0417 -0.8135 -0.2305
  123ANI     H1 2442   1.094   0.501   2.832 -0.6829 -0.8230  0.7718
  123ANI     H2 2443   0.934   0.422   2.866  2.2350  0.6412  2.6579
  123ANI     H3 2444   1.039   0.363   2.739 -1.7993 -0.3696  0.3870
  123ANI     H4 2445   0.754   0.632   2.560  0.6924 -0.8367 -0.0541
  123ANI     H5 2446   0.677   0.877   2.558 -0.8551  1.2429  1.3901
  123ANI     H6 2447   0.782   1.031   2.736 -0.9459 -1.3333 -0.4116
  123ANI     H7 2448   0.966   0.946   2.880  0.3023 -2.6451  1.5120
  123ANI     H8 2449   1.072   0.725   2.829  0.9776  0.0341 -1.3338
  124ANI     C1 2450   1.571   0.614   1.523 -0.3534 -0.4696  0.2368
  124ANI     O1 2451   1.646   0.737   1.534 -0.3658  0.8512 -0.6161
  124ANI     C2 2452   1.590   0.859   1.558 -0.0662 -0.6263  0.5329
  124ANI     C3 2453   1.455   0.870   1.577  0.5789  0.9083 -0.4810
  124ANI     C4 2454   1.395   0.997   1.573 -0.1015 -0.3599 -0.1445
  124ANI     C5 2455   1.479   1.113   1.568  0.4132  0.4948  0.3318
  124ANI     C6 2456   1.620   1.102   1.557  0.2818  0.4805 -0.9043
  124ANI     C7 2457   1.678   0.971   1.545  0.3541 -0.3146 -0.2480
  124ANI     H1 2458   1.644   0.534   1.502 -0.6171 -1.0051  1.3044
  124ANI     H2 2459   1.523   0.587   1.618  1.1194  1.6394  1.6036
  124ANI     H3 2460   1.494   0.611   1.444  1.1483 -0.8514 -1.2521
  124ANI     H4 2461   1.386   0.787   1.576  1.1905  0.3994 -0.4210
  124ANI     H5 2462   1.288   1.014   1.563 -0.0457 -0.9712 -1.8753
  124ANI     H6 2463   1.430   1.210   1.572 -2.4667 -0.9673  1.4575
  124ANI     H7 2464   1.681   1.191   1.545  0.3686  0.8796  2.1728
  124ANI     H8 2465   1.779   0.947   1.513 -0.7296 -2.5327 -2.2211
  125ANI     C1 2466   1.208   0.282   0.804  0.1831 -0.4455  0.6040
  125ANI     O1 2467   1.201   0.187   0.703  0.1894 -0.2826  0.5075
  125ANI     C2 2468   1.269   0.198   0.585 -0.3708  1.0076  0.3438
  125ANI     C3 2469   1.355   0.304   0.546  0.2980 -0.4638 -0.2888
  125ANI     C4 2470   1.431   0.301   0.431 -0.0444 -0.0762  0.7917
  125ANI     C5 2471   1.419   0.195   0.346  0.0371  0.8120 -0.3719
  125ANI     C6 2472   1.342   0.091   0.377  0.7222  0.5572  0.5516
  125ANI     C7 2473   1.268   0.092   0.496  0.6974  0.0270  0.0553
  125ANI     H1 2474   1.310   0.305   0.838  1.1568 -3.5918 -0.0573
  125ANI     H2 2475   1.171   0.374   0.759  1.8095 -0.8289 -1.5924
  125ANI     H3 2476   1.147   0.252   0.890 -0.0873 -0.1367  0.5232
  125ANI     H4 2477   1.350   0.394   0.606 -0.0766 -0.7902  0.1708
  125ANI     H5 2478   1.490   0.386   0.399  0.1347  0.2071  1.8673
  125ANI     H6 2479   1.465   0.187   0.249 -0.9953  1.0290 -0.8847
  125ANI     H7 2480   1.339   0.008   0.307 -0.4288  0.4007  0.7655
  125ANI     H8 2481   1.207   0.004   0.514  2.1677 -0.7674  1.2161
  126ANI     C1 2482   1.073   0.883   0.568 -0.2709  0.8706  0.4407
  126ANI     O1 2483   1.132   0.883   0.433  0.0800 -0.0819  0.4540
  126ANI     C2 2484   1.061   0.929   0.318 -0.1973  0.1035 -0.5679
  126ANI     C3 2485   0.929   0.972   0.324  0.1434  0.2025 -0.4934
  126ANI     C4 2486   0.868   1.016   0.205  0.4049  0.4046  0.5332
  126ANI     C5 2487   0.934   1.011   0.086 -0.2361  0.7757  0.4648
  126ANI     C6 2488   1.067   0.961   0.078 -0.0267  0.1399  0.0644
  126ANI     C7 2489   1.129   0.916   0.198 -0.2270  0.9861 -0.3572
  126ANI     H1 2490   1.074   0.987   0.600  0.6161  1.5491 -1.6638
  126ANI     H2 2491   0.970   0.845   0.569  0.1927 -0.3775  1.2316
  126ANI     H3 2492   1.132   0.823   0.638  0.5223 -1.1494 -1.8825
  126ANI     H4 2493   0.877   0.985   0.419  0.3035  1.1896 -0.5344
  126ANI     H5 2494   0.766   1.054   0.207 -0.2478 -1.3128  1.9218
  126ANI     H6 2495   0.885   1.036  -0.008  0.1218  3.7227  1.0249
  126ANI     H7 2496   1.121   0.944  -0.014 -0.1495  0.7526 -0.1251
  126ANI     H8 2497   1.222   0.861   0.203 -1.8768 -1.7388  1.1103
  127ANI     C1 2498   2.099   0.918   2.657 -0.0662  0.0030  0.3688
  127ANI     O1 2499   2.140   0.885   2.524 -0.1616 -0.1210 -0.4146
  127ANI     C2 2500   2.105   0.773   2.459  0.2890  0.1742 -0.4797
  127ANI     C3 2501   2.009   0.683   2.510  0.1077 -0.0155  0.3597
  127ANI     C4 2502   1.973   0.562   2.443 -1.2497 -0.3736  0.4778
  127ANI     C5 2503   2.051   0.528   2.330  0.4732  0.0465  0.5666
  127ANI     C6 2504   2.151   0.620   2.277  0.5434  0.0084  0.4533
  127ANI     C7 2505   2.175   0.743   2.344 -0.5533 -0.7556  0.6093
  127ANI     H1 2506   1.994   0.948   2.657  0.0207  0.3189  1.3931
  127ANI     H2 2507   2.125   0.835   2.723 -0.9398  0.9169  1.8980
  127ANI     H3 2508   2.149   1.011   2.688  0.0028 -0.0295  0.3533
  127ANI     H4 2509   1.959   0.710   2.602  0.8212 -2.6487  1.5655
  127ANI     H5 2510   1.901   0.488   2.477 -1.0339 -1.7938 -2.0535
  127ANI     H6 2511   2.024   0.433   2.285  1.3790  0.4450 -0.8309
  127ANI     H7 2512   2.217   0.582   2.199 -0.2611  0.6897 -0.5585
  127ANI     H8 2513   2.256   0.806   2.310 -0.9409 -0.4836  0.1815
  128ANI     C1 2514   1.839   0.802   1.239 -0.6037 -0.0203  1.1706
  128ANI     O1 2515   1.835   0.831   1.099 -0.6338 -0.1093  0.3658
  128ANI     C2 2516   1.860   0.723   1.008  0.0879 -0.5055 -0.7616
  128ANI     C3 2517   1.828   0.751   0.876 -0.1070 -0.3933 -0.2452
  128ANI     C4 2518   1.850   0.651   0.776 -0.7911  0.2742  0.2414
  128ANI     C5 2519   1.883   0.519   0.809  0.2189 -0.1570 -0.3953
  128ANI     C6 2520   1.901   0.488   0.948 -0.1789 -0.1224 -0.0696
  128ANI     C7 2521   1.895   0.588   1.043 -0.1931  0.3872 -0.7288
  128ANI     H1 2522   1.842   0.892   1.302  0.6624  0.5503  0.3235
  128ANI     H2 2523   1.757   0.732   1.259 -0.1125 -1.8826 -2.8917
  128ANI     H3 2524   1.937   0.761   1.268  0.0927 -0.6256 -1.8694
  128ANI     H4 2525   1.787   0.849   0.856 -0.0711  0.1237  2.1276
  128ANI     H5 2526   1.833   0.669   0.670 -1.2428 -0.8735  0.1156
  128ANI     H6 2527   1.891   0.446   0.729  2.1926 -1.1230  0.6272
  128ANI     H7 2528   1.925   0.384   0.972 -1.1654 -0.4824 -0.5830
  128ANI     H8 2529   1.908   0.567   1.149 -2.6945 -0.4180 -0.5586
  129ANI     C1 2530   1.289   2.598   2.597  0.1200 -0.3956 -0.2040
  129ANI     O1 2531   1.272   2.679   2.717  0.6365  0.0096 -0.7362
  129ANI     C2 2532   1.248   2.819   2.721 -0.2122  0.8872  0.4524
  129ANI     C3 2533   1.199   2.885   2.609 -0.1762 -0.4207  1.2075
  129ANI     C4 2534   1.149   3.020   2.620  0.2279 -0.0012  0.0182
  129ANI     C5 2535   1.168   3.083   2.745 -0.1756  0.0893  0.4322
  129ANI     C6 2536   1.223   3.014   2.849 -0.1223  0.5348 -0.2159
  129ANI     C7 2537   1.267   2.884   2.843 -0.4271 -0.4177  0.2071
  129ANI     H1 2538   1.191   2.577   2.553  1.4227 -3.4722 -1.7898
  129ANI     H2 2539   1.353   2.638   2.518 -0.5774  0.9220 -0.1029
  129ANI     H3 2540   1.326   2.497   2.620 -0.2326 -0.3953  0.3767
  129ANI     H4 2541   1.168   2.832   2.519  3.5179  1.7204 -1.4359
  129ANI     H5 2542   1.098   3.071   2.539  0.9847  0.7076 -0.0240
  129ANI     H6 2543   1.135   3.186   2.747 -0.2447  0.0907 -0.4458
  129ANI     H7 2544   1.244   3.066   2.943 -0.1283  1.6413 -0.8186
  129ANI     H8 2545   1.320   2.831   2.921 -0.5911 -1.2358 -0.2350
  130ANI     C1 2546   0.122   0.743   0.180 -0.2895  0.1915 -0.4322
  130ANI     O1 2547   0.013   0.811   0.252 -0.0497 -0.1180  0.5027
  130ANI     C2 2548  -0.072   0.900   0.175  0.1877 -0.4852 -0.5121
  130ANI     C3 2549  -0.195   0.940   0.235 -0.5843 -0.3603  0.8153
  130ANI     C4 2550  -0.282   1.025   0.173  0.1178 -0.6351 -0.1912
  130ANI     C5 2551  -0.260   1.066   0.046  0.1603 -0.7314  0.1566
  130ANI     C6 2552  -0.140   1.030  -0.019 -0.6129  0.0279  1.1683
  130ANI     C7 2553  -0.036   0.956   0.044  0.2414  0.0022  0.4053
  130ANI     H1 2554   0.168   0.666   0.243 -0.4169 -0.3066 -0.9494
  130ANI     H2 2555   0.075   0.698   0.092  1.0271 -1.5850 -0.2471
  130ANI     H3 2556   0.191   0.812   0.130  0.5385 -1.1224 -1.1311
  130ANI     H4 2557  -0.217   0.909   0.336 -1.8883 -1.6471  0.1602
  130ANI     H5 2558  -0.371   1.039   0.233 -0.9787 -2.2088 -1.4263
  130ANI     H6 2559  -0.332   1.127  -0.007 -0.2643  1.2000  2.8274
  130ANI     H7 2560  -0.130   1.068  -0.120  0.6303  1.3912  1.7886
  130ANI     H8 2561   0.056   0.940  -0.012 -0.2968  0.5514 -0.6443
  131ANI     C1 2562   2.665   0.031   2.637 -0.5515  0.0803  0.9384
  131ANI     O1 2563   2.616  -0.007   2.768 -0.1982 -0.2627  0.8792
  131ANI     C2 2564   2.528  -0.106   2.780  0.6955  0.2689  0.6763
  131ANI     C3 2565   2.530  -0.213   2.695  0.1613  0.4247 -0.5430
  131ANI     C4 2566   2.432  -0.316   2.705 -0.6393  0.3846 -0.0942
  131ANI     C5 2567   2.351  -0.322   2.818  0.0675  0.5043 -0.7030
  131ANI     C6 2568   2.356  -0.212   2.910 -0.2142 -0.4304  0.0487
  131ANI     C7 2569   2.452  -0.106   2.892  0.0859 -0.0749  0.6216
  131ANI     H1 2570   2.593   0.089   2.577 -1.8758 -0.6602  1.8018
  131ANI     H2 2571   2.750   0.099   2.649  1.4223 -1.8513 -1.5125
  131ANI     H3 2572   2.698  -0.055   2.577 -0.7001 -0.2971  1.3990
  131ANI     H4 2573   2.590  -0.204   2.605  0.5875 -1.1877 -0.4373
  131ANI     H5 2574   2.423  -0.394   2.630  0.7190 -1.2760  1.3947
  131ANI     H6 2575   2.288  -0.408   2.839 -0.8003  1.1405 -0.6848
  131ANI     H7 2576   2.296  -0.219   3.000  0.0189  0.8256  0.3096
  131ANI     H8 2577   2.472  -0.031   2.968  0.8180  1.1688 -0.7648
  132ANI     C1 2578   1.058   2.645   0.964 -0.2658  0.1164 -0.3729
  132ANI     O1 2579   0.922   2.602   0.957  0.0775  1.2749 -0.0227
  132ANI     C2 2580   0.883   2.471   0.925  0.0506 -0.0857  0.1930
  132ANI     C3 2581   0.953   2.373   0.857  0.0898 -0.1555 -0.0366
  132ANI     C4 2582   0.901   2.246   0.840  0.3488  0.4950  0.0719
  132ANI     C5 2583   0.766   2.223   0.871 -0.1103  0.2407 -0.2310
  132ANI     C6 2584   0.696   2.319   0.946  0.3177  0.0627  0.9012
  132ANI     C7 2585   0.754   2.438   0.974 -0.4248  0.3821 -0.0017
  132ANI     H1 2586   1.102   2.631   0.865  0.4036  0.0130 -0.0630
  132ANI     H2 2587   1.076   2.751   0.983  1.0547 -0.0282 -0.7745
  132ANI     H3 2588   1.117   2.577   1.026 -0.7263  0.5112  0.5115
  132ANI     H4 2589   1.054   2.390   0.820 -0.2433 -2.2879 -2.0229
  132ANI     H5 2590   0.963   2.169   0.796  0.2594  0.5479 -0.1458
  132ANI     H6 2591   0.728   2.121   0.864  1.3866 -0.3969  0.7875
  132ANI     H7 2592   0.601   2.297   0.992 -0.4042 -2.3149 -1.6264
  132ANI     H8 2593   0.691   2.512   1.024  0.0244 -0.1001  1.3095
  133ANI     C1 2594   2.879   0.231   2.286  0.6075 -0.5930  0.4859
  133ANI     O1 2595   2.751   0.210   2.235 -0.0882 -0.3506  0.5231
  133ANI     C2 2596   2.640   0.271   2.292  0.5820 -0.6106 -0.0401
  133ANI     C3 2597   2.517   0.229   2.247 -0.7947  0.4152 -0.4718
  133ANI     C4 2598   2.397   0.292   2.289 -0.1921 -0.2045  0.2943
  133ANI     C5 2599   2.406   0.405   2.378  0.9001 -0.2585  0.1544
  133ANI     C6 2600   2.532   0.434   2.432 -0.4142 -0.1742  0.2089
  133ANI     C7 2601   2.652   0.368   2.391 -0.1407 -0.9289  0.9893
  133ANI     H1 2602   2.895   0.338   2.270 -0.4002 -0.8527 -2.5205
  133ANI     H2 2603   2.881   0.197   2.390 -0.7799 -0.3550  0.5938
  133ANI     H3 2604   2.951   0.166   2.235 -2.2740 -0.6215 -3.7712
  133ANI     H4 2605   2.516   0.149   2.174  0.2515  0.4031 -0.4829
  133ANI     H5 2606   2.303   0.265   2.240 -0.8299  0.7131  1.0033
  133ANI     H6 2607   2.317   0.459   2.409  1.3554 -0.4795  1.9262
  133ANI     H7 2608   2.550   0.512   2.505  0.8015  0.4737 -0.7723
  133ANI     H8 2609   2.749   0.397   2.432  0.4910  0.2874 -1.2999
  134ANI     C1 2610   1.283   1.304   0.443  0.7440  1.0256 -0.4131
  134ANI     O1 2611   1.303   1.448   0.452 -0.1825  0.4447  0.2606
  134ANI     C2 2612   1.417   1.504   0.397 -0.1047 -0.2413 -0.1187
  134ANI     C3 2613   1.528   1.435   0.353  0.1028  0.5016 -0.3759
  134ANI     C4 2614   1.647   1.500   0.323  0.1385 -0.1943 -0.9343
  134ANI     C5 2615   1.657   1.639   0.325  0.6344  0.0806  0.3488
  134ANI     C6 2616   1.550   1.706   0.373 -0.6566 -0.2872  0.2074
  134ANI     C7 2617   1.433   1.646   0.408 -0.3712 -0.0725 -0.0649
  134ANI     H1 2618   1.177   1.277   0.442  1.2351 -1.1273  1.4979
  134ANI     H2 2619   1.329   1.257   0.355 -0.0368  0.4068 -0.4957
  134ANI     H3 2620   1.323   1.264   0.537 -1.3745 -0.2347 -0.0258
  134ANI     H4 2621   1.532   1.327   0.351  0.1979  0.5129 -0.8673
  134ANI     H5 2622   1.724   1.433   0.286 -0.0100 -1.3817  0.8703
  134ANI     H6 2623   1.748   1.690   0.296 -1.0614  1.0565 -3.6613
  134ANI     H7 2624   1.556   1.814   0.388  2.6040 -0.0933 -2.0303
  134ANI     H8 2625   1.348   1.704   0.442  1.3992  1.1369  2.3839
  135ANI     C1 2626   1.232   0.241   0.060  0.2403  0.0361 -0.0458
  135ANI     O1 2627   1.293   0.263  -0.074 -0.2003 -0.4750  0.3101
  135ANI     C2 2628   1.289   0.386  -0.143  1.3334  0.2257 -0.4577
  135ANI     C3 2629   1.208   0.488  -0.099  0.4080 -0.1863  0.2370
  135ANI     C4 2630   1.224   0.618  -0.145 -0.1577  0.8620 -0.1941
  135ANI     C5 2631   1.310   0.652  -0.247  0.2467 -0.4418  0.0608
  135ANI     C6 2632   1.385   0.542  -0.301 -1.6720  0.1822  0.2021
  135ANI     C7 2633   1.376   0.413  -0.248  0.0707  0.7356  0.1364
  135ANI     H1 2634   1.280   0.309   0.132  0.1732 -1.4038  1.3950
  135ANI     H2 2635   1.123   0.251   0.052  0.3523  2.8382  1.3892
  135ANI     H3 2636   1.258   0.139   0.093  1.2093  0.4752  0.5837
  135ANI     H4 2637   1.135   0.474  -0.020 -0.6204  0.8833 -0.5016
  135ANI     H5 2638   1.173   0.698  -0.092 -0.9592  0.7765 -0.8246
  135ANI     H6 2639   1.309   0.756  -0.279  0.1706  0.3354  2.4554
  135ANI     H7 2640   1.448   0.551  -0.389 -0.8720 -3.8544  0.2387
  135ANI     H8 2641   1.428   0.330  -0.295  0.9170  0.7101  1.1125
  136ANI     C1 2642   0.768   2.231   0.235  0.4306  0.0994 -0.1566
  136ANI     O1 2643   0.892   2.209   0.164 -0.1402 -0.3602  0.2967
  136ANI     C2 2644   0.928   2.077   0.129 -0.5676  0.3173 -0.0956
  136ANI     C3 2645   0.995   2.063   0.006  0.0444 -1.0802 -0.3681
  136ANI     C4 2646   1.028   1.939  -0.045 -0.0743 -0.8531 -0.4443
  136ANI     C5 2647   1.011   1.825   0.036  0.3758 -0.5315 -0.0271
  136ANI     C6 2648   0.943   1.835   0.160  0.4110 -0.1192 -0.0926
  136ANI     C7 2649   0.901   1.963   0.200  0.7340 -0.1142  0.3382
  136ANI     H1 2650   0.781   2.327   0.286  0.5008 -0.8637  1.6932
  136ANI     H2 2651   0.687   2.242   0.162  0.1508  2.7707  0.5037
  136ANI     H3 2652   0.760   2.155   0.314  1.0226  0.5106  0.3050
  136ANI     H4 2653   1.017   2.148  -0.058  1.7111  0.1998  1.8210
  136ANI     H5 2654   1.067   1.936  -0.147 -0.0525  2.1135 -0.5838
  136ANI     H6 2655   1.048   1.729  -0.001 -0.4453  0.3108 -3.0949
  136ANI     H7 2656   0.924   1.753   0.228 -2.5392  1.0668  0.6099
  136ANI     H8 2657   0.839   1.959   0.290  0.6952 -2.1182  0.2395
  137ANI     C1 2658   2.695   0.674   0.802  0.0818 -0.4622  0.4385
  137ANI     O1 2659   2.702   0.632   0.663  0.0961  0.2566 -0.0225
  137ANI     C2 2660   2.579   0.613   0.590 -0.6703  0.4170  0.7592
  137ANI     C3 2661   2.488   0.717   0.587 -0.1227  0.7265  0.2595
  137ANI     C4 2662   2.361   0.692   0.524 -0.1082 -0.5398  0.0258
  137ANI     C5 2663   2.336   0.578   0.447  0.4616  0.1632  0.0865
  137ANI     C6 2664   2.426   0.473   0.447 -0.9700  0.3547 -0.1435
  137ANI     C7 2665   2.549   0.491   0.521  0.1431 -0.0863 -0.0433
  137ANI     H1 2666   2.672   0.781   0.812  0.0327 -0.3585 -0.7514
  137ANI     H2 2667   2.630   0.616   0.869  0.8027 -0.4572  1.1469
  137ANI     H3 2668   2.793   0.682   0.850  0.3392 -3.8427  0.5846
  137ANI     H4 2669   2.508   0.809   0.641  3.5640  1.2228 -1.7893
  137ANI     H5 2670   2.280   0.764   0.518  2.4898  2.4148 -0.5236
  137ANI     H6 2671   2.248   0.571   0.384  0.5964 -2.1653  0.1192
  137ANI     H7 2672   2.415   0.383   0.388  3.7827 -0.9557  0.7306
  137ANI     H8 2673   2.619   0.409   0.529 -0.3168 -0.7387 -2.3198
  138ANI     C1 2674   0.725   0.245   2.467 -0.1610 -0.0309  0.0582
  138ANI     O1 2675   0.808   0.306   2.362 -0.4844  0.0309 -0.4305
  138ANI     C2 2676   0.940   0.267   2.353 -0.0196  1.0053 -0.7908
  138ANI     C3 2677   0.999   0.189   2.455 -0.0856  0.3063  0.0043
  138ANI     C4 2678   1.134   0.142   2.435  0.1716  0.4260 -0.6083
  138ANI     C5 2679   1.219   0.202   2.330 -0.3667  0.2795 -0.5964
  138ANI     C6 2680   1.157   0.281   2.231 -0.1399  0.4680 -0.2022
  138ANI     C7 2681   1.014   0.307   2.243  0.4249  0.5952  0.7357
  138ANI     H1 2682   0.715   0.138   2.445  0.1492 -0.1545  0.5107
  138ANI     H2 2683   0.768   0.256   2.567  1.0076 -2.3714 -0.1552
  138ANI     H3 2684   0.629   0.297   2.461  0.1051  0.3273 -1.1568
  138ANI     H4 2685   0.947   0.138   2.536 -0.0120  0.1655 -0.0378
  138ANI     H5 2686   1.168   0.062   2.500 -1.0969  0.1042 -0.3165
  138ANI     H6 2687   1.325   0.182   2.318  0.1168  2.3579  0.0088
  138ANI     H7 2688   1.212   0.332   2.152  4.2578 -0.0474  2.3818
  138ANI     H8 2689   0.950   0.355   2.169 -0.3986 -0.8520  0.4867
  139ANI     C1 2690   0.036   1.544   3.341  0.3160  0.1298  0.3998
  139ANI     O1 2691  -0.097   1.530   3.299  0.3679  0.0102  0.3065
  139ANI     C2 2692  -0.168   1.639   3.276  0.0614  0.6533 -0.0222
  139ANI     C3 2693  -0.105   1.763   3.241  0.5471 -0.0967 -0.0364
  139ANI     C4 2694  -0.187   1.871   3.204 -0.7997 -0.1169  0.3604
  139ANI     C5 2695  -0.329   1.868   3.205 -0.5943  0.6262  0.0291
  139ANI     C6 2696  -0.383   1.742   3.240  0.2179 -0.3123 -0.3415
  139ANI     C7 2697  -0.307   1.629   3.271  0.8184 -0.3379 -0.1362
  139ANI     H1 2698   0.066   1.440   3.359  0.4708  0.0566 -0.2610
  139ANI     H2 2699   0.103   1.582   3.264  0.3560 -1.1839 -0.2280
  139ANI     H3 2700   0.047   1.599   3.435  1.5118  1.0932 -0.2872
  139ANI     H4 2701   0.003   1.769   3.234  0.8604 -2.5709  2.0244
  139ANI     H5 2702  -0.136   1.963   3.179  1.0511 -0.6896  1.8382
  139ANI     H6 2703  -0.388   1.957   3.187 -0.9638  0.4039  0.1427
  139ANI     H7 2704  -0.491   1.731   3.243  0.1458  0.4102 -0.0545
  139ANI     H8 2705  -0.359   1.535   3.288  0.2655  0.1610  0.9608
  140ANI     C1 2706   1.414   1.975   3.066 -0.0204  0.2741 -0.5050
  140ANI     O1 2707   1.491   2.037   2.960 -0.4192  0.6384  0.2906
  140ANI     C2 2708   1.537   1.966   2.856  0.4305  1.0096  0.2630
  140ANI     C3 2709   1.550   1.824   2.862  0.1997  0.4297  0.3990
  140ANI     C4 2710   1.599   1.753   2.749 -0.0438  0.9018 -0.6642
  140ANI     C5 2711   1.630   1.817   2.629  0.0464  0.0319  0.1780
  140ANI     C6 2712   1.623   1.959   2.623 -0.2731 -0.5429  0.5534
  140ANI     C7 2713   1.575   2.032   2.740 -0.2245 -0.2275  0.0459
  140ANI     H1 2714   1.360   2.048   3.127 -2.3103 -0.8670 -1.1033
  140ANI     H2 2715   1.348   1.899   3.022  1.2809 -0.2871 -1.5431
  140ANI     H3 2716   1.488   1.918   3.124 -1.9702 -0.8584  0.9338
  140ANI     H4 2717   1.533   1.769   2.955 -0.1105 -3.3463 -1.7742
  140ANI     H5 2718   1.614   1.646   2.750 -0.8832  0.7868 -0.4516
  140ANI     H6 2719   1.643   1.754   2.542 -2.1854  1.8206 -1.4947
  140ANI     H7 2720   1.645   2.011   2.530  0.1539 -0.9684  0.4131
  140ANI     H8 2721   1.544   2.136   2.741 -0.2345 -0.2326  1.6316
  141ANI     C1 2722   0.017   2.618   3.804 -0.4752  0.1462  0.1456
  141ANI     O1 2723   0.055   2.526   3.897 -0.8428 -0.6849 -0.4870
  141ANI     C2 2724   0.017   2.396   3.898 -0.5344  0.3874 -0.2152
  141ANI     C3 2725   0.089   2.321   3.985 -0.1384  0.2511  0.0478
  141ANI     C4 2726   0.069   2.182   3.995  0.6323  0.1914  0.1897
  141ANI     C5 2727  -0.029   2.125   3.908  0.6017 -0.2101  0.0456
  141ANI     C6 2728  -0.105   2.207   3.820  0.6000  0.0534  1.0396
  141ANI     C7 2729  -0.078   2.345   3.812  0.0440  0.0940 -0.3612
  141ANI     H1 2730   0.064   2.716   3.818 -0.0044 -0.2053  1.0506
  141ANI     H2 2731   0.057   2.597   3.704 -1.3218 -2.7103  0.3648
  141ANI     H3 2732  -0.092   2.628   3.811 -0.8771 -3.5037  0.0181
  141ANI     H4 2733   0.153   2.366   4.060 -0.4729  0.4649  0.2093
  141ANI     H5 2734   0.116   2.113   4.065  1.1653 -0.1738 -0.5214
  141ANI     H6 2735  -0.055   2.021   3.926 -0.8613  0.2272  0.5726
  141ANI     H7 2736  -0.178   2.160   3.756 -0.1578  0.1246  1.8463
  141ANI     H8 2737  -0.146   2.410   3.758  1.7763  0.9104 -1.6167
  142ANI     C1 2738   2.489   2.096   0.185  0.3921 -0.1732 -0.2387
  142ANI     O1 2739   2.591   2.076   0.278  0.6210 -0.7072 -0.2360
  142ANI     C2 2740   2.657   1.955   0.288  0.8517 -0.6365  1.5179
  142ANI     C3 2741   2.754   1.936   0.393 -0.3558  0.2993  0.2004
  142ANI     C4 2742   2.809   1.810   0.416  0.7145 -0.9139  0.7372
  142ANI     C5 2743   2.789   1.708   0.325  0.2000  0.2108  0.3900
  142ANI     C6 2744   2.706   1.724   0.217  0.5157  0.8385  0.0565
  142ANI     C7 2745   2.634   1.846   0.198  0.3143  0.3858  0.3199
  142ANI     H1 2746   2.413   2.019   0.199  1.4937 -1.2063  0.1404
  142ANI     H2 2747   2.440   2.192   0.205 -1.4368 -1.1488  0.0593
  142ANI     H3 2748   2.515   2.096   0.078 -1.4156 -0.4183 -0.6940
  142ANI     H4 2749   2.774   2.021   0.457 -2.3623  2.6745 -2.1960
  142ANI     H5 2750   2.886   1.787   0.489  0.7824 -0.5909  0.7703
  142ANI     H6 2751   2.843   1.615   0.343 -0.4768  0.1113  2.0651
  142ANI     H7 2752   2.672   1.636   0.164  1.3714 -0.1810  1.1889
  142ANI     H8 2753   2.566   1.857   0.115 -1.9265  0.3345  2.0930
  143ANI     C1 2754   0.827   2.966   2.997  0.5286  0.2079  0.2861
  143ANI     O1 2755   0.727   2.876   2.950  0.1889 -0.3396 -0.0144
  143ANI     C2 2756   0.703   2.857   2.815 -0.2461 -0.4480 -0.5744
  143ANI     C3 2757   0.600   2.777   2.766  0.3318  0.0767 -0.1317
  143ANI     C4 2758   0.570   2.768   2.626  0.2235  0.0958 -0.0241
  143ANI     C5 2759   0.649   2.838   2.532 -0.2405  0.5007 -0.2822
  143ANI     C6 2760   0.761   2.905   2.576 -0.0018  0.9588 -0.5503
  143ANI     C7 2761   0.791   2.912   2.712 -0.0964  0.3110 -0.4260
  143ANI     H1 2762   0.810   3.070   2.968 -0.7591  0.0235  0.3401
  143ANI     H2 2763   0.832   2.960   3.107  1.7296  1.9580  0.3566
  143ANI     H3 2764   0.926   2.931   2.965  1.2639  1.9534  0.5800
  143ANI     H4 2765   0.540   2.718   2.835 -1.5977  2.7740  0.5845
  143ANI     H5 2766   0.485   2.703   2.605 -0.4032  0.7954  0.3348
  143ANI     H6 2767   0.624   2.834   2.426 -0.8381 -0.3503 -0.1118
  143ANI     H7 2768   0.831   2.944   2.502  2.1507  1.7034  1.8070
  143ANI     H8 2769   0.881   2.966   2.742  0.4334 -1.8093  1.9525
  144ANI     C1 2770   0.967   0.942   2.288  0.1277  0.5943 -0.0400
  144ANI     O1 2771   0.841   0.979   2.238  0.0896 -0.3793 -0.2843
  144ANI     C2 2772   0.734   0.896   2.239  0.4661 -0.2062 -0.4889
  144ANI     C3 2773   0.741   0.754   2.243 -0.2662 -0.1501  0.1468
  144ANI     C4 2774   0.628   0.677   2.246  0.1715 -0.8904  0.1261
  144ANI     C5 2775   0.500   0.732   2.232 -0.3735 -0.6938 -0.2509
  144ANI     C6 2776   0.488   0.870   2.228 -0.2396 -0.0480 -0.3712
  144ANI     C7 2777   0.602   0.951   2.227 -0.4588  0.7698  0.1574
  144ANI     H1 2778   1.007   0.856   2.232 -1.5904 -0.5327  0.4274
  144ANI     H2 2779   1.027   1.033   2.281 -0.5675  1.2146  1.7376
  144ANI     H3 2780   0.957   0.923   2.395 -1.9121 -1.0417 -0.4856
  144ANI     H4 2781   0.841   0.712   2.247  0.0567  0.5998  0.0275
  144ANI     H5 2782   0.634   0.569   2.253  1.0309 -0.7593  1.6423
  144ANI     H6 2783   0.409   0.673   2.228 -0.3818 -0.7046  0.1266
  144ANI     H7 2784   0.385   0.904   2.223  0.7473  2.9089 -1.4105
  144ANI     H8 2785   0.589   1.058   2.214 -1.8709  1.1899  4.3022
  145ANI     C1 2786   0.831   0.257   3.706  0.9073  0.2828  0.0099
  145ANI     O1 2787   0.832   0.387   3.767  0.2910 -0.0627  0.2874
  145ANI     C2 2788   0.896   0.408   3.893 -0.3623  0.3719  0.3880
  145ANI     C3 2789   0.932   0.299   3.973 -0.4291 -0.7281  0.0734
  145ANI     C4 2790   1.011   0.320   4.087  0.4787 -0.0634  0.4120
  145ANI     C5 2791   1.044   0.447   4.123  0.4518  0.0316 -0.5417
  145ANI     C6 2792   0.987   0.555   4.054 -0.0823  0.2601  0.5976
  145ANI     C7 2793   0.915   0.536   3.940 -0.3928  0.2625  0.0969
  145ANI     H1 2794   0.932   0.214   3.702  0.4513 -0.8232  0.0828
  145ANI     H2 2795   0.770   0.182   3.759 -1.7890  1.8623 -0.7264
  145ANI     H3 2796   0.784   0.268   3.607 -0.1164  0.3291  0.4871
  145ANI     H4 2797   0.912   0.198   3.939 -0.6673 -0.4329 -0.6631
  145ANI     H5 2798   1.055   0.239   4.145  0.4043  0.2078  0.8448
  145ANI     H6 2799   1.110   0.471   4.205 -0.0541 -0.2332 -0.0520
  145ANI     H7 2800   1.011   0.658   4.074  1.3005  0.5335 -2.1582
  145ANI     H8 2801   0.880   0.623   3.886  0.8427  1.3381  0.9760
  146ANI     C1 2802   2.541   2.591   1.517 -0.5245 -0.0669 -0.2799
  146ANI     O1 2803   2.409   2.633   1.528  0.3546 -0.1851  0.2476
  146ANI     C2 2804   2.366   2.764   1.506 -0.8988 -0.7688 -0.9909
  146ANI     C3 2805   2.443   2.856   1.430  0.6584  0.0910 -0.0746
  146ANI     C4 2806   2.401   2.984   1.404  0.0203  1.3812 -0.6227
  146ANI     C5 2807   2.286   3.031   1.469 -0.6761  0.4079  0.2436
  146ANI     C6 2808   2.207   2.940   1.552  0.2252 -0.2066  0.3079
  146ANI     C7 2809   2.251   2.807   1.571  0.5678  0.1078  0.1288
  146ANI     H1 2810   2.599   2.646   1.592  0.2323 -4.4373  2.4973
  146ANI     H2 2811   2.546   2.488   1.553  1.7588 -0.0558 -0.4837
  146ANI     H3 2812   2.582   2.609   1.416 -1.3156  0.0515 -0.5813
  146ANI     H4 2813   2.538   2.824   1.386  0.5962  1.8139 -1.5373
  146ANI     H5 2814   2.469   3.053   1.355  0.4174 -0.3507 -2.5854
  146ANI     H6 2815   2.243   3.130   1.460 -2.5748 -0.2525  1.5809
  146ANI     H7 2816   2.110   2.970   1.591 -0.6317  0.2247 -2.0719
  146ANI     H8 2817   2.190   2.740   1.631 -1.4435  0.2349 -1.7192
  147ANI     C1 2818   0.431   0.668   0.911  0.7053 -0.7445 -0.4687
  147ANI     O1 2819   0.295   0.614   0.909  0.0999 -0.1412  0.3701
  147ANI     C2 2820   0.235   0.575   0.793  0.4855  0.1587 -0.1065
  147ANI     C3 2821   0.245   0.645   0.670 -0.9270 -0.3189  0.5716
  147ANI     C4 2822   0.178   0.596   0.559  1.2922  0.4276 -0.3474
  147ANI     C5 2823   0.101   0.480   0.558 -0.0074  0.1109 -0.7041
  147ANI     C6 2824   0.075   0.413   0.679  0.2691  0.6802 -0.1175
  147ANI     C7 2825   0.145   0.464   0.798  0.1284 -0.3713 -0.2661
  147ANI     H1 2826   0.445   0.762   0.855 -0.0712 -2.6240 -3.9701
  147ANI     H2 2827   0.463   0.684   1.015 -1.2644 -0.1053  0.0489
  147ANI     H3 2828   0.507   0.600   0.870  0.5512 -1.8255  0.9966
  147ANI     H4 2829   0.302   0.737   0.661 -0.4053 -0.7340 -0.4839
  147ANI     H5 2830   0.187   0.643   0.461 -0.9967  0.2182 -0.6701
  147ANI     H6 2831   0.040   0.462   0.470  0.3365  1.1602 -1.1582
  147ANI     H7 2832  -0.003   0.340   0.696 -0.7810  2.2094  1.7835
  147ANI     H8 2833   0.130   0.419   0.896 -3.6495 -1.4783 -1.2869
  148ANI     C1 2834   3.078   1.925   1.181  0.2194  1.1367  0.3011
  148ANI     O1 2835   2.973   1.945   1.093 -0.1437 -0.0252  0.4018
  148ANI     C2 2836   2.845   1.941   1.140 -0.0132 -0.0651 -0.1423
  148ANI     C3 2837   2.742   1.978   1.052  0.7377 -0.1910  0.1165
  148ANI     C4 2838   2.606   1.979   1.100  0.1569 -0.3459 -0.2252
  148ANI     C5 2839   2.573   1.937   1.230  0.5143 -0.8079  0.6507
  148ANI     C6 2840   2.675   1.886   1.303  0.9065 -0.1019  0.6332
  148ANI     C7 2841   2.811   1.890   1.268 -0.5312 -0.8764 -0.4693
  148ANI     H1 2842   3.079   1.818   1.206 -2.5306  1.8612  4.0861
  148ANI     H2 2843   3.165   1.951   1.121 -0.8920 -0.4571 -2.0877
  148ANI     H3 2844   3.078   1.983   1.274  0.3497 -0.1566  1.1235
  148ANI     H4 2845   2.771   2.008   0.952 -2.8422  1.6055 -0.4397
  148ANI     H5 2846   2.532   2.016   1.030 -0.1312  0.2314  0.3900
  148ANI     H6 2847   2.468   1.934   1.258 -0.4823 -1.4901 -2.8657
  148ANI     H7 2848   2.645   1.841   1.397  1.6614 -2.7533 -0.3531
  148ANI     H8 2849   2.882   1.843   1.335 -0.7419  0.2684  0.5793
  149ANI     C1 2850   3.243   1.789   2.263 -0.7629  0.2894 -0.1719
  149ANI     O1 2851   3.306   1.664   2.243  0.1176 -0.1510 -0.0708
  149ANI     C2 2852   3.445   1.655   2.237  0.3477  0.2094 -0.3177
  149ANI     C3 2853   3.500   1.526   2.221  0.0756 -0.1716  0.2597
  149ANI     C4 2854   3.638   1.506   2.225  0.0524 -0.1776 -0.0347
  149ANI     C5 2855   3.726   1.620   2.230  0.0214 -0.5189  0.1460
  149ANI     C6 2856   3.668   1.748   2.235 -0.5684  0.7975  0.1177
  149ANI     C7 2857   3.532   1.767   2.238  0.2126  0.3190 -0.5920
  149ANI     H1 2858   3.267   1.853   2.177  3.4735  0.9209  1.3627
  149ANI     H2 2859   3.133   1.792   2.267 -0.6522  2.2143  2.7714
  149ANI     H3 2860   3.275   1.830   2.359 -3.5446  1.4923  0.3055
  149ANI     H4 2861   3.435   1.439   2.226 -2.3984  1.4228 -2.4964
  149ANI     H5 2862   3.686   1.409   2.213 -0.8157 -0.3141 -2.7018
  149ANI     H6 2863   3.834   1.606   2.229 -0.0961 -1.4348 -0.8525
  149ANI     H7 2864   3.738   1.831   2.230  0.0617  0.2430 -0.4086
  149ANI     H8 2865   3.494   1.866   2.259  0.0543 -0.0863  1.1815
  150ANI     C1 2866   2.145   0.328   3.522  0.0475 -0.6933  0.1455
  150ANI     O1 2867   2.010   0.362   3.538 -0.1926  0.0280 -0.2707
  150ANI     C2 2868   1.929   0.284   3.620  0.2103  0.5540  0.8546
  150ANI     C3 2869   1.980   0.226   3.735 -0.1528  1.1268  0.2560
  150ANI     C4 2870   1.900   0.147   3.821  0.2596 -0.2578  0.8720
  150ANI     C5 2871   1.762   0.140   3.794 -0.3406 -0.2864  0.8463
  150ANI     C6 2872   1.713   0.199   3.676  0.4189  0.1976 -0.2122
  150ANI     C7 2873   1.791   0.275   3.586 -0.2955  0.9460 -0.3098
  150ANI     H1 2874   2.170   0.351   3.417 -0.8887  0.1647  0.0986
  150ANI     H2 2875   2.203   0.392   3.589 -1.5933  1.3323 -0.3045
  150ANI     H3 2876   2.156   0.219   3.518 -1.2742 -0.8174 -0.3525
  150ANI     H4 2877   2.085   0.241   3.760 -0.0576  0.7889  0.0654
  150ANI     H5 2878   1.942   0.098   3.909  2.1062 -0.4210 -0.0652
  150ANI     H6 2879   1.701   0.080   3.860 -1.5400  2.6492  2.5211
  150ANI     H7 2880   1.612   0.180   3.641  0.5828 -0.8873 -0.1245
  150ANI     H8 2881   1.748   0.314   3.494 -0.6628 -0.5743 -0.8016
  151ANI     C1 2882   1.993   1.712   2.639  0.4205  0.3423  0.1174
  151ANI     O1 2883   2.091   1.631   2.693 -0.1758  0.3232 -0.1943
  151ANI     C2 2884   2.158   1.664   2.813 -0.2283 -0.6661  0.6335
  151ANI     C3 2885   2.131   1.782   2.890  0.5703  0.0295 -0.3119
  151ANI     C4 2886   2.218   1.822   2.999 -0.2780  0.3089  0.0124
  151ANI     C5 2887   2.322   1.733   3.036 -0.0821 -0.2731 -0.1781
  151ANI     C6 2888   2.343   1.619   2.957 -0.4012 -0.1573  0.1171
  151ANI     C7 2889   2.266   1.579   2.847 -0.4006 -0.7246  0.1355
  151ANI     H1 2890   1.902   1.715   2.700 -1.1331 -2.4673 -1.9150
  151ANI     H2 2891   2.033   1.814   2.636 -0.2457  0.6328  0.8224
  151ANI     H3 2892   1.965   1.671   2.541  0.2857 -2.9968  1.4854
  151ANI     H4 2893   2.050   1.850   2.866 -0.9466 -2.0880 -1.3124
  151ANI     H5 2894   2.196   1.910   3.058  1.0130 -1.0108  2.5679
  151ANI     H6 2895   2.391   1.764   3.114  0.6132 -1.3427 -0.3432
  151ANI     H7 2896   2.430   1.561   2.986  0.1341  0.1828 -0.7986
  151ANI     H8 2897   2.284   1.493   2.783  3.0718  1.4289 -1.9063
  152ANI     C1 2898   3.027   2.023   0.763 -0.0476 -0.3583  0.4504
  152ANI     O1 2899   2.954   2.114   0.674 -0.1720 -0.5273  0.5607
  152ANI     C2 2900   3.015   2.180   0.570  0.0238 -0.2239 -0.5429
  152ANI     C3 2901   2.937   2.254   0.484  0.3095 -0.2905 -0.7693
  152ANI     C4 2902   2.990   2.325   0.378 -0.4023 -0.3402 -0.1512
  152ANI     C5 2903   3.129   2.310   0.350  0.1261 -0.5060  0.4367
  152ANI     C6 2904   3.215   2.251   0.443 -0.2241  0.1701  0.0016
  152ANI     C7 2905   3.160   2.181   0.549 -0.0667  0.0872 -0.2033
  152ANI     H1 2906   3.114   2.073   0.807  1.7022 -1.5862 -1.5084
  152ANI     H2 2907   2.956   1.985   0.837 -1.7183 -0.7142 -1.2859
  152ANI     H3 2908   3.071   1.939   0.708  1.5865  1.3600 -0.9281
  152ANI     H4 2909   2.831   2.261   0.509 -0.0080  1.0089 -2.4177
  152ANI     H5 2910   2.929   2.392   0.319  0.1387 -0.8605 -1.3143
  152ANI     H6 2911   3.170   2.349   0.257 -2.1679 -0.3055 -0.5049
  152ANI     H7 2912   3.322   2.248   0.422  0.0053 -0.1812  1.1376
  152ANI     H8 2913   3.230   2.122   0.608 -0.7115 -0.7481 -0.2552
  153ANI     C1 2914   2.225   3.148   1.066  0.6696  0.5618  0.4005
  153ANI     O1 2915   2.129   3.197   1.169 -0.3043 -0.6741 -0.0308
  153ANI     C2 2916   2.044   3.301   1.140  0.4227 -0.1769  0.0298
  153ANI     C3 2917   1.929   3.311   1.221  0.1853  0.6179  0.3668
  153ANI     C4 2918   1.830   3.411   1.194  0.3409 -0.1966 -0.1431
  153ANI     C5 2919   1.860   3.504   1.089  0.6348 -0.6961  0.7442
  153ANI     C6 2920   1.979   3.503   1.018 -0.1822  0.1643  0.0507
  153ANI     C7 2921   2.069   3.396   1.037  0.0456  0.3368  0.0399
  153ANI     H1 2922   2.288   3.224   1.019  1.0993  0.4377  0.7745
  153ANI     H2 2923   2.289   3.066   1.100  1.5932  0.8274 -0.7008
  153ANI     H3 2924   2.166   3.098   0.988  0.6320  1.9193 -0.4549
  153ANI     H4 2925   1.919   3.231   1.294 -1.4091  0.4673  0.0037
  153ANI     H5 2926   1.740   3.428   1.252  3.4430  1.4918  4.4061
  153ANI     H6 2927   1.794   3.588   1.071  2.4434  1.0202  1.9178
  153ANI     H7 2928   1.986   3.574   0.937  1.8343  0.8831  0.8234
  153ANI     H8 2929   2.158   3.391   0.975 -0.4826  2.8637 -0.9626
  154ANI     C1 2930   3.169   2.574   1.497  0.8010  0.4138 -0.3863
  154ANI     O1 2931   3.038   2.553   1.542  0.0824 -0.4032 -0.6641
  154ANI     C2 2932   2.956   2.455   1.496  0.3431  0.3102 -0.0412
  154ANI     C3 2933   2.990   2.377   1.380  0.5861 -0.3679  0.2086
  154ANI     C4 2934   2.902   2.279   1.335 -1.7708  0.8320  0.3007
  154ANI     C5 2935   2.789   2.251   1.407  0.7354  0.1773  0.4305
  154ANI     C6 2936   2.761   2.313   1.530  0.9220  0.1164  0.2658
  154ANI     C7 2937   2.844   2.415   1.574  0.0573 -0.1283  0.4509
  154ANI     H1 2938   3.159   2.618   1.397  0.7278  1.6027  0.1271
  154ANI     H2 2939   3.212   2.656   1.556  1.9188 -0.4464 -0.0015
  154ANI     H3 2940   3.233   2.486   1.491  0.7028  0.1960  1.3750
  154ANI     H4 2941   3.082   2.402   1.329  1.3798  0.3142  1.9353
  154ANI     H5 2942   2.919   2.220   1.245 -0.9479  0.1718  0.8766
  154ANI     H6 2943   2.723   2.177   1.363  2.9430 -1.3533 -0.3864
  154ANI     H7 2944   2.671   2.287   1.585  1.1981 -0.0279  0.6486
  154ANI     H8 2945   2.826   2.474   1.663 -0.0253  2.0900 -0.9969
  155ANI     C1 2946   3.375   2.525   1.128 -0.2446  0.1371 -0.2282
  155ANI     O1 2947   3.360   2.408   1.202  0.5694  0.1074 -0.0035
  155ANI     C2 2948   3.391   2.282   1.155  0.3771  0.3235 -0.0049
  155ANI     C3 2949   3.389   2.181   1.247  0.5461 -0.1793  0.0854
  155ANI     C4 2950   3.408   2.043   1.208  0.0781 -0.8759 -0.0782
  155ANI     C5 2951   3.431   2.014   1.076 -0.6598 -0.7540 -0.0233
  155ANI     C6 2952   3.443   2.119   0.982 -0.1262 -0.3868  0.2451
  155ANI     C7 2953   3.419   2.250   1.020 -0.3819 -0.1499  0.0726
  155ANI     H1 2954   3.294   2.549   1.058 -1.5968 -2.1426  0.5127
  155ANI     H2 2955   3.390   2.608   1.199 -2.1075  0.3293 -0.0339
  155ANI     H3 2956   3.458   2.513   1.056 -0.4029  0.0940 -0.4059
  155ANI     H4 2957   3.356   2.203   1.348  2.3476 -3.6788  1.5291
  155ANI     H5 2958   3.402   1.962   1.280  2.0806 -2.1327 -1.2872
  155ANI     H6 2959   3.452   1.913   1.042 -0.4575 -0.9204  0.5917
  155ANI     H7 2960   3.464   2.093   0.879  1.3839  1.5035  0.0544
  155ANI     H8 2961   3.416   2.328   0.945 -1.4154 -0.2041  0.0580
  156ANI     C1 2962   0.904   1.071   1.546  0.0752  0.3595 -0.5568
  156ANI     O1 2963   0.849   1.203   1.561 -0.0397  0.3040 -0.6550
  156ANI     C2 2964   0.924   1.318   1.547 -0.1586  0.2764  0.5471
  156ANI     C3 2965   0.858   1.442   1.565 -0.2937  0.2705  0.4018
  156ANI     C4 2966   0.925   1.565   1.541  0.5923  0.0775 -0.1011
  156ANI     C5 2967   1.056   1.564   1.504 -0.2904 -0.3718  0.0011
  156ANI     C6 2968   1.127   1.443   1.506  0.0052 -0.4544  0.3847
  156ANI     C7 2969   1.064   1.317   1.515 -0.1305 -0.5972 -0.1487
  156ANI     H1 2970   0.932   1.045   1.443  2.3558 -1.0768  0.3794
  156ANI     H2 2971   0.994   1.058   1.607  1.0136  0.6854 -1.8503
  156ANI     H3 2972   0.832   0.996   1.579 -0.5278  2.3582  2.8301
  156ANI     H4 2973   0.751   1.438   1.584 -0.4148 -1.2217 -0.4967
  156ANI     H5 2974   0.875   1.661   1.552  4.0240  1.7237  2.1032
  156ANI     H6 2975   1.110   1.658   1.506 -1.6963  0.4248  0.9856
  156ANI     H7 2976   1.235   1.440   1.492 -0.1633  0.1990 -1.1518
  156ANI     H8 2977   1.121   1.225   1.512  0.9925  0.0950 -0.6505
  157ANI     C1 2978   1.324   2.491   0.738  0.9141  0.3746 -0.5416
  157ANI     O1 2979   1.295   2.470   0.880  0.5876  0.3323 -0.0291
  157ANI     C2 2980   1.397   2.437   0.972 -0.2816 -0.4161  0.4389
  157ANI     C3 2981   1.360   2.407   1.101  0.5793  0.1160 -0.3978
  157ANI     C4 2982   1.455   2.369   1.195  0.4306 -0.4079 -0.9552
  157ANI     C5 2983   1.591   2.346   1.163 -0.2414  0.9946 -0.7018
  157ANI     C6 2984   1.631   2.377   1.029  0.0900 -0.7795 -0.4591
  157ANI     C7 2985   1.532   2.427   0.939  0.0859 -0.1831 -0.3467
  157ANI     H1 2986   1.383   2.409   0.694 -0.8751  0.2743 -2.8626
  157ANI     H2 2987   1.233   2.494   0.678  1.2149 -0.7991 -1.0698
  157ANI     H3 2988   1.382   2.583   0.723  1.2452  0.3397  0.5054
  157ANI     H4 2989   1.257   2.427   1.129  1.1905  0.0546  2.0371
  157ANI     H5 2990   1.423   2.352   1.297  1.1703 -0.2354 -0.6924
  157ANI     H6 2991   1.670   2.315   1.231 -2.3297 -1.7603  0.5591
  157ANI     H7 2992   1.734   2.371   0.994  0.5252  1.1296  0.4153
  157ANI     H8 2993   1.576   2.467   0.848 -1.1462  2.4749  0.1752
  158ANI     C1 2994   2.061   1.465   1.170  0.8218  0.1072 -0.4777
  158ANI     O1 2995   2.055   1.441   1.315  0.1272  0.1183 -0.3957
  158ANI     C2 2996   2.076   1.313   1.363  0.2746  0.1351 -0.5983
  158ANI     C3 2997   2.099   1.208   1.274 -0.3355  0.1927 -0.1244
  158ANI     C4 2998   2.094   1.076   1.317 -0.1240  0.1657  0.4093
  158ANI     C5 2999   2.063   1.048   1.449 -0.2233  0.9940  0.4188
  158ANI     C6 3000   2.043   1.151   1.542 -0.1756 -1.3489  0.3165
  158ANI     C7 3001   2.048   1.285   1.497 -0.1985  0.5655  0.5039
  158ANI     H1 3002   2.001   1.394   1.112 -1.4352  1.2829  0.3864
  158ANI     H2 3003   2.030   1.568   1.151  0.8586 -0.1919 -2.2879
  158ANI     H3 3004   2.166   1.466   1.138  1.0994 -1.8610  0.2723
  158ANI     H4 3005   2.129   1.227   1.171  1.5300 -2.5793 -0.1571
  158ANI     H5 3006   2.119   0.998   1.245  0.2035  2.1263 -1.6779
  158ANI     H6 3007   2.043   0.946   1.481  3.9564  0.7655  2.6009
  158ANI     H7 3008   2.008   1.129   1.642  0.2761  0.2837  0.8530
  158ANI     H8 3009   2.032   1.369   1.564  2.3096  4.0306 -3.0340
  159ANI     C1 3010   0.805   3.319   2.284  0.3500 -0.0953  0.3746
  159ANI     O1 3011   0.870   3.208   2.223  0.0187  0.2747 -0.1251
  159ANI     C2 3012   1.002   3.190   2.227  0.1795 -0.5339  0.0412
  159ANI     C3 3013   1.051   3.059   2.218 -0.1269  0.6117 -0.2400
  159ANI     C4 3014   1.186   3.038   2.239  0.3361  0.7586  0.0894
  159ANI     C5 3015   1.282   3.135   2.261 -0.2854 -0.3068 -0.5199
  159ANI     C6 3016   1.236   3.268   2.263  0.1550  0.2901  0.2266
  159ANI     C7 3017   1.097   3.301   2.252 -0.2165 -0.2858 -0.2268
  159ANI     H1 3018   0.697   3.312   2.266  0.4108 -1.4240  0.4970
  159ANI     H2 3019   0.818   3.317   2.393 -0.8854  1.3030  0.5735
  159ANI     H3 3020   0.837   3.416   2.244 -0.9711 -0.1048 -0.7377
  159ANI     H4 3021   0.996   2.972   2.185  0.1635  0.5503 -0.5702
  159ANI     H5 3022   1.216   2.934   2.241 -0.1269  0.5915 -1.4224
  159ANI     H6 3023   1.387   3.119   2.285  0.1771  2.0493 -0.9094
  159ANI     H7 3024   1.304   3.350   2.281 -0.9294  1.0037  1.1974
  159ANI     H8 3025   1.059   3.401   2.267  1.6654  0.3631  0.4067
  160ANI     C1 3026   0.560   2.455   1.468  0.5297  0.3091 -0.3482
  160ANI     O1 3027   0.678   2.487   1.547  0.1313 -0.3417 -0.0159
  160ANI     C2 3028   0.794   2.511   1.482 -0.2612 -0.0212  0.4097
  160ANI     C3 3029   0.815   2.513   1.347 -0.3100 -0.0996 -0.1769
  160ANI     C4 3030   0.950   2.534   1.302 -0.0917 -0.6472  0.5266
  160ANI     C5 3031   1.063   2.553   1.389  0.2293 -0.1145  0.5609
  160ANI     C6 3032   1.032   2.566   1.527 -0.5718  0.2159 -0.3847
  160ANI     C7 3033   0.898   2.544   1.568  0.3963  0.6353 -0.2139
  160ANI     H1 3034   0.482   2.434   1.542  0.2078 -3.4383 -1.6419
  160ANI     H2 3035   0.515   2.541   1.419  3.5375  1.8714 -0.5001
  160ANI     H3 3036   0.576   2.362   1.411  0.0660 -0.9732  1.5596
  160ANI     H4 3037   0.735   2.506   1.273 -1.7207  0.4833  1.2762
  160ANI     H5 3038   0.974   2.533   1.196 -2.3152 -0.4219 -0.0108
  160ANI     H6 3039   1.165   2.560   1.352  0.4858 -0.6463  1.1635
  160ANI     H7 3040   1.118   2.578   1.592 -0.9638 -0.0269  0.1812
  160ANI     H8 3041   0.879   2.538   1.675 -1.6626 -2.7639 -0.6774
  161ANI     C1 3042   1.954   0.502   0.178 -0.4436  0.1912  0.5432
  161ANI     O1 3043   1.870   0.582   0.262  0.1430 -0.0285 -0.2989
  161ANI     C2 3044   1.729   0.572   0.249 -1.3545  0.0382 -0.0142
  161ANI     C3 3045   1.662   0.662   0.329 -0.9865 -0.3478  0.0174
  161ANI     C4 3046   1.527   0.680   0.322  0.4917  0.0480 -0.1052
  161ANI     C5 3047   1.448   0.605   0.235  0.4356  0.1199 -0.2680
  161ANI     C6 3048   1.507   0.507   0.155 -0.5988 -0.2639  0.3730
  161ANI     C7 3049   1.652   0.495   0.158 -0.2110 -0.1789 -1.2861
  161ANI     H1 3050   1.922   0.509   0.073  1.9805 -0.4423 -0.2837
  161ANI     H2 3051   2.057   0.525   0.206 -0.3154 -0.6821  0.8210
  161ANI     H3 3052   1.946   0.393   0.194 -1.0897  0.1253 -0.1890
  161ANI     H4 3053   1.724   0.729   0.388 -1.7230 -0.0073  0.4033
  161ANI     H5 3054   1.476   0.752   0.385  0.9052  0.1080  0.1601
  161ANI     H6 3055   1.341   0.620   0.222  0.2210 -0.1839  0.9849
  161ANI     H7 3056   1.449   0.446   0.086  1.2197 -1.3437 -0.2447
  161ANI     H8 3057   1.696   0.428   0.085 -0.0268  0.0057 -1.3410
  162ANI     C1 3058   2.745   1.560   2.599  0.2239  0.1054 -0.2428
  162ANI     O1 3059   2.728   1.422   2.569  0.0556 -0.2201 -0.4208
  162ANI     C2 3060   2.603   1.359   2.552  0.0227  0.6663 -0.1540
  162ANI     C3 3061   2.492   1.435   2.524  0.2493 -0.0191  0.8792
  162ANI     C4 3062   2.363   1.382   2.507  0.0028  0.5469  0.0265
  162ANI     C5 3063   2.354   1.247   2.511 -0.5344  0.1755 -0.2348
  162ANI     C6 3064   2.461   1.161   2.544 -0.1910  0.3142 -0.7479
  162ANI     C7 3065   2.586   1.222   2.562 -0.9590  0.3589  0.8426
  162ANI     H1 3066   2.687   1.626   2.534 -1.5015 -1.5018 -0.3789
  162ANI     H2 3067   2.710   1.588   2.699 -1.7100 -1.6295 -0.4022
  162ANI     H3 3068   2.854   1.578   2.605 -0.0740  1.5843  1.3947
  162ANI     H4 3069   2.509   1.542   2.516  2.7107 -0.3402  1.4907
  162ANI     H5 3070   2.279   1.449   2.492 -0.0058  0.5663  0.1633
  162ANI     H6 3071   2.263   1.192   2.488  0.1073 -0.9242 -0.2139
  162ANI     H7 3072   2.434   1.056   2.556 -2.1359  0.9940  1.1076
  162ANI     H8 3073   2.674   1.164   2.589 -2.4239 -1.7494  1.1819
  163ANI     C1 3074   1.120   0.638   2.404  0.5104 -0.1829 -1.1528
  163ANI     O1 3075   1.218   0.696   2.314 -0.0936 -0.7457 -0.0132
  163ANI     C2 3076   1.299   0.810   2.349  0.2918  0.0144  0.6223
  163ANI     C3 3077   1.305   0.852   2.478 -0.4541 -1.1628 -0.7409
  163ANI     C4 3078   1.378   0.969   2.503 -0.4735 -0.2377  0.3699
  163ANI     C5 3079   1.453   1.038   2.401 -0.2348  0.2442  0.2017
  163ANI     C6 3080   1.435   0.994   2.265 -0.6628 -0.1793  0.0046
  163ANI     C7 3081   1.361   0.881   2.246  0.6950 -0.4646  0.4522
  163ANI     H1 3082   1.058   0.565   2.351  0.4508 -1.2735  0.3938
  163ANI     H2 3083   1.170   0.590   2.489 -2.5043 -2.5835 -0.6401
  163ANI     H3 3084   1.043   0.709   2.439 -0.4840 -0.4319 -2.8071
  163ANI     H4 3085   1.258   0.802   2.563 -3.5476  0.8082 -1.2398
  163ANI     H5 3086   1.374   0.999   2.607  0.4634 -0.2813  0.4180
  163ANI     H6 3087   1.524   1.119   2.419  1.7317 -0.9808 -1.7712
  163ANI     H7 3088   1.485   1.038   2.179 -2.1146  1.7914  0.1383
  163ANI     H8 3089   1.344   0.844   2.145  0.9433 -1.4743  0.7725
  164ANI     C1 3090   2.773   2.046   2.237  0.3788  0.0687  0.3685
  164ANI     O1 3091   2.833   1.921   2.226  0.7278 -0.1241  0.1682
  164ANI     C2 3092   2.763   1.801   2.230 -0.3819 -0.7245  0.8329
  164ANI     C3 3093   2.835   1.683   2.235 -0.2644 -0.1815  0.4781
  164ANI     C4 3094   2.775   1.563   2.217  0.2840  0.1438  0.6939
  164ANI     C5 3095   2.628   1.558   2.217  0.1547 -0.7782 -0.6363
  164ANI     C6 3096   2.551   1.677   2.220 -0.1110  0.2694  0.4190
  164ANI     C7 3097   2.620   1.799   2.226 -0.9105  0.0870 -0.1694
  164ANI     H1 3098   2.831   2.128   2.194 -0.9179  1.0799  0.4985
  164ANI     H2 3099   2.680   2.043   2.179 -0.0632  0.1887  1.0593
  164ANI     H3 3100   2.751   2.075   2.341  3.3231 -1.2583  1.4236
  164ANI     H4 3101   2.942   1.692   2.251 -0.0235 -2.5267  0.4254
  164ANI     H5 3102   2.826   1.467   2.205  0.4426  0.3558 -0.3030
  164ANI     H6 3103   2.577   1.462   2.222  1.3382 -1.3826  0.2370
  164ANI     H7 3104   2.443   1.671   2.217  0.0073 -1.8503 -2.4834
  164ANI     H8 3105   2.563   1.891   2.241 -0.2414  0.3223  1.0446
  165ANI     C1 3106   1.381   1.380   3.352 -0.1286 -0.7046 -0.3433
  165ANI     O1 3107   1.370   1.490   3.263  0.5843 -0.4781  0.0098
  165ANI     C2 3108   1.287   1.593   3.296  0.2042 -0.2690 -0.4286
  165ANI     C3 3109   1.247   1.615   3.432 -0.1850  0.0851  0.5218
  165ANI     C4 3110   1.174   1.729   3.460 -0.2368 -0.9141  0.3536
  165ANI     C5 3111   1.129   1.812   3.355 -0.1358 -0.4872 -0.2586
  165ANI     C6 3112   1.163   1.795   3.225 -0.3847 -1.1925 -0.1321
  165ANI     C7 3113   1.248   1.686   3.194  0.4311 -0.0083 -0.2159
  165ANI     H1 3114   1.283   1.337   3.375  0.1323 -2.0231 -1.6978
  165ANI     H2 3115   1.439   1.306   3.297 -0.5259 -2.6139  1.7499
  165ANI     H3 3116   1.440   1.417   3.437 -2.3401  1.6284  0.2570
  165ANI     H4 3117   1.275   1.555   3.517  1.9135 -1.4037 -1.1781
  165ANI     H5 3118   1.143   1.747   3.562 -1.0443 -2.0825  0.3119
  165ANI     H6 3119   1.062   1.893   3.385 -1.0163 -1.7836  1.3129
  165ANI     H7 3120   1.122   1.870   3.159  1.3392 -0.9941 -1.0206
  165ANI     H8 3121   1.279   1.671   3.091 -1.3667  1.6271 -1.0109
  166ANI     C1 3122   1.382   1.579   0.054  0.1809 -0.2118 -0.0285
  166ANI     O1 3123   1.330   1.447   0.059 -0.6764 -0.2165  0.0071
  166ANI     C2 3124   1.394   1.342   0.003  0.3029  0.4050  0.0161
  166ANI     C3 3125   1.516   1.352  -0.069 -0.0153 -0.3645 -0.4667
  166ANI     C4 3126   1.569   1.233  -0.128  0.3832 -0.2013 -0.4157
  166ANI     C5 3127   1.503   1.112  -0.122  0.2635 -0.4659 -0.3312
  166ANI     C6 3128   1.380   1.107  -0.050 -0.1282  0.3641  0.6952
  166ANI     C7 3129   1.327   1.221   0.011  0.4415 -0.6444 -0.2126
  166ANI     H1 3130   1.322   1.661   0.096  0.7615  0.7653 -1.1047
  166ANI     H2 3131   1.476   1.584   0.110  1.1870 -0.1567 -1.7003
  166ANI     H3 3132   1.399   1.602  -0.051  0.9396 -1.8158 -0.2722
  166ANI     H4 3133   1.576   1.441  -0.089 -0.7667 -0.0480 -1.3767
  166ANI     H5 3134   1.657   1.234  -0.192 -0.3377 -0.3079 -1.4287
  166ANI     H6 3135   1.547   1.027  -0.173  1.6599  0.7822 -1.2618
  166ANI     H7 3136   1.334   1.010  -0.037  2.3849 -1.3848 -2.7298
  166ANI     H8 3137   1.236   1.216   0.071  0.1628  2.5020 -0.2704
  167ANI     C1 3138   0.979   2.531   2.896 -0.0435 -0.4543 -0.1584
  167ANI     O1 3139   1.049   2.528   3.020  0.0271  0.2271  0.0694
  167ANI     C2 3140   1.190   2.498   3.038 -0.0275  0.4449  0.3284
  167ANI     C3 3141   1.265   2.423   2.942 -0.5239 -0.1361  0.4368
  167ANI     C4 3142   1.399   2.391   2.972  0.0307  0.1901 -0.3209
  167ANI     C5 3143   1.462   2.436   3.092 -0.2611 -0.3012 -0.2708
  167ANI     C6 3144   1.383   2.505   3.192  0.1565 -0.3206  0.1882
  167ANI     C7 3145   1.250   2.534   3.163 -0.8483 -0.7249  0.0274
  167ANI     H1 3146   1.023   2.602   2.824  1.4913 -1.9920 -0.7491
  167ANI     H2 3147   0.976   2.431   2.852 -4.0175 -0.4316 -0.1774
  167ANI     H3 3148   0.872   2.555   2.904  0.4154  2.1980 -1.2097
  167ANI     H4 3149   1.210   2.405   2.850  1.7936  0.6449 -1.1280
  167ANI     H5 3150   1.464   2.337   2.904  1.1311  0.1561  0.7396
  167ANI     H6 3151   1.563   2.402   3.111 -0.0857 -0.1076 -0.8245
  167ANI     H7 3152   1.426   2.539   3.286 -0.8213  0.6203  0.3023
  167ANI     H8 3153   1.185   2.585   3.233 -0.5543 -0.2799 -0.0226
  168ANI     C1 3154   2.018   2.947   2.739 -0.5646  0.2469  0.2219
  168ANI     O1 3155   2.097   2.999   2.626 -0.2738 -0.8399  0.0040
  168ANI     C2 3156   2.124   2.927   2.520  0.2144  0.2776  0.5056
  168ANI     C3 3157   2.122   2.791   2.523  0.9049  0.0552 -0.6027
  168ANI     C4 3158   2.147   2.718   2.408  0.1472  0.5796  0.5029
  168ANI     C5 3159   2.175   2.781   2.292  0.5327  0.0781  0.2525
  168ANI     C6 3160   2.186   2.922   2.294 -0.2924 -0.0124  0.1778
  168ANI     C7 3161   2.161   2.993   2.408 -0.6272  0.2597 -0.0778
  168ANI     H1 3162   1.919   2.905   2.716 -0.9316  1.4002 -0.3564
  168ANI     H2 3163   2.078   2.870   2.789 -2.1151  0.8063  3.0208
  168ANI     H3 3164   2.005   3.023   2.817 -0.0373  0.9765 -0.3866
  168ANI     H4 3165   2.105   2.739   2.617  0.1685  0.4938 -0.4910
  168ANI     H5 3166   2.147   2.610   2.414 -1.3909  0.6150  1.3525
  168ANI     H6 3167   2.198   2.715   2.208 -1.5774  0.5343 -0.7104
  168ANI     H7 3168   2.224   2.970   2.205  0.6037 -0.2004  0.4546
  168ANI     H8 3169   2.166   3.102   2.414 -2.0483  0.2753  1.0412
  169ANI     C1 3170   2.198   2.076   2.520 -0.0828 -0.4325 -0.2401
  169ANI     O1 3171   2.244   1.943   2.498  0.0777  0.0885  0.1913
  169ANI     C2 3172   2.188   1.859   2.404 -0.1416 -0.4286 -0.5940
  169ANI     C3 3173   2.243   1.731   2.389 -0.4895  0.0918  0.1563
  169ANI     C4 3174   2.198   1.643   2.297 -0.2510  0.0965  0.1215
  169ANI     C5 3175   2.081   1.671   2.230 -0.6875 -1.0559 -0.0616
  169ANI     C6 3176   2.016   1.797   2.244  0.6094 -0.3450  0.0803
  169ANI     C7 3177   2.069   1.890   2.328 -0.7265 -0.0745  0.4699
  169ANI     H1 3178   2.255   2.125   2.600  0.5136  1.2667 -1.6723
  169ANI     H2 3179   2.202   2.132   2.426  0.7834 -0.8979 -0.4913
  169ANI     H3 3180   2.092   2.066   2.549 -0.7323 -1.1063 -2.7634
  169ANI     H4 3181   2.332   1.700   2.443  0.2016 -1.9517 -2.0583
  169ANI     H5 3182   2.253   1.550   2.283  1.7699  1.0948  1.1338
  169ANI     H6 3183   2.038   1.602   2.158 -0.6679  0.5604 -1.6545
  169ANI     H7 3184   1.920   1.818   2.196 -0.3738  0.4451  2.3376
  169ANI     H8 3185   2.011   1.981   2.340 -2.1057 -0.9010  0.1720
  170ANI     C1 3186   0.537   0.366   2.927 -0.1388  0.0268 -0.2407
  170ANI     O1 3187   0.494   0.495   2.922 -0.2325 -0.0175 -0.1946
  170ANI     C2 3188   0.443   0.549   2.810 -0.4298  0.0165  0.5768
  170ANI     C3 3189   0.501   0.534   2.674  0.8844  0.5302 -0.8730
  170ANI     C4 3190   0.438   0.608   2.563 -0.3746 -0.7624 -0.5710
  170ANI     C5 3191   0.323   0.686   2.592 -0.3138 -0.3228  0.3386
  170ANI     C6 3192   0.264   0.694   2.716 -0.0707 -0.5279 -0.5422
  170ANI     C7 3193   0.322   0.628   2.827 -0.5098 -0.1131  0.0960
  170ANI     H1 3194   0.637   0.352   2.885  0.4320 -0.8846  1.3799
  170ANI     H2 3195   0.527   0.327   3.029  0.4673  1.1829  0.2678
  170ANI     H3 3196   0.478   0.292   2.871 -0.6859 -0.7199  1.2772
  170ANI     H4 3197   0.597   0.485   2.665 -0.3737 -1.8871 -1.3619
  170ANI     H5 3198   0.487   0.617   2.467 -1.4013  2.9624 -0.8199
  170ANI     H6 3199   0.296   0.758   2.514  1.6519 -0.5971 -0.6155
  170ANI     H7 3200   0.173   0.753   2.726  1.3761  1.7147 -0.1875
  170ANI     H8 3201   0.280   0.637   2.927 -0.6700  2.6400 -0.1703
  171ANI     C1 3202   1.687   3.183   3.425 -0.0324 -0.3239 -0.0260
  171ANI     O1 3203   1.618   3.130   3.312 -0.4121  0.3506 -0.3572
  171ANI     C2 3204   1.623   2.994   3.279 -0.3051 -0.3849 -0.2191
  171ANI     C3 3205   1.693   2.906   3.358  0.0239  0.0488  0.1130
  171ANI     C4 3206   1.723   2.775   3.318  0.4643 -0.2411 -0.6598
  171ANI     C5 3207   1.668   2.731   3.197 -0.1847 -0.4069  0.0350
  171ANI     C6 3208   1.576   2.813   3.127  0.1238  0.9467  0.0136
  171ANI     C7 3209   1.551   2.942   3.174  0.4384  0.3432 -0.1108
  171ANI     H1 3210   1.697   3.292   3.415 -2.6760 -0.0764 -0.1797
  171ANI     H2 3211   1.637   3.146   3.515  2.1981 -0.3002  1.2816
  171ANI     H3 3212   1.792   3.151   3.421  0.0740 -0.3510  2.2226
  171ANI     H4 3213   1.742   2.944   3.447  1.1897  1.3897 -1.0819
  171ANI     H5 3214   1.801   2.720   3.370  1.1902 -0.1826 -1.6833
  171ANI     H6 3215   1.697   2.634   3.157 -2.0613 -1.0001  0.0451
  171ANI     H7 3216   1.533   2.784   3.031  0.3901 -2.2217  0.7869
  171ANI     H8 3217   1.497   3.009   3.108  2.2104  0.2607 -1.6912
  172ANI     C1 3218   2.814   0.948   3.641  0.0022 -0.2907  0.1982
  172ANI     O1 3219   2.943   0.900   3.591  0.6916 -0.5647 -0.1987
  172ANI     C2 3220   3.032   0.984   3.516 -0.1186 -0.5794 -0.6087
  172ANI     C3 3221   3.137   0.926   3.457  0.3194  0.6872  0.3011
  172ANI     C4 3222   3.232   0.998   3.377  0.4428  0.2001  0.2266
  172ANI     C5 3223   3.215   1.136   3.360 -0.9737  0.9842 -0.8345
  172ANI     C6 3224   3.104   1.195   3.419 -0.7374  0.5019  0.3596
  172ANI     C7 3225   3.015   1.121   3.503 -0.2394  0.1451 -0.0388
  172ANI     H1 3226   2.823   1.024   3.719 -1.9308 -1.3316  1.4696
  172ANI     H2 3227   2.754   0.987   3.558  0.8098 -0.6129 -0.5501
  172ANI     H3 3228   2.751   0.873   3.690  2.2379 -3.0134 -0.9491
  172ANI     H4 3229   3.160   0.821   3.469 -0.0490  0.6977  1.0934
  172ANI     H5 3230   3.317   0.942   3.337 -1.5787 -3.6763  1.0550
  172ANI     H6 3231   3.288   1.183   3.295  0.9161 -1.6253 -0.6718
  172ANI     H7 3232   3.094   1.303   3.410  3.6068  1.0224  0.7837
  172ANI     H8 3233   2.942   1.182   3.555 -2.4272 -1.2560 -1.3831
  173ANI     C1 3234   1.922   0.254   1.481 -0.2309 -0.2387 -0.1066
  173ANI     O1 3235   1.786   0.235   1.527 -0.2231  0.4498 -0.7008
  173ANI     C2 3236   1.684   0.266   1.436  0.0830 -0.3164  0.2859
  173ANI     C3 3237   1.550   0.251   1.468 -0.0420 -0.4147  0.7917
  173ANI     C4 3238   1.454   0.274   1.370 -1.1575 -0.3939  0.9605
  173ANI     C5 3239   1.491   0.314   1.239  0.2909 -0.2867 -0.2224
  173ANI     C6 3240   1.626   0.330   1.202  0.3509  0.0938 -0.4043
  173ANI     C7 3241   1.725   0.312   1.306 -0.0505 -0.2760 -0.4471
  173ANI     H1 3242   1.984   0.217   1.563 -0.1629 -2.3258 -1.0605
  173ANI     H2 3243   1.954   0.189   1.398 -1.2022  0.3117 -0.9195
  173ANI     H3 3244   1.933   0.362   1.464 -3.0783  0.2752  1.0455
  173ANI     H4 3245   1.531   0.219   1.570  1.1963  1.0195  1.4743
  173ANI     H5 3246   1.348   0.256   1.390 -1.6047 -2.0929 -2.5079
  173ANI     H6 3247   1.415   0.323   1.162  1.2427 -3.1842 -1.5769
  173ANI     H7 3248   1.653   0.382   1.110  3.5584  0.6958  0.8181
  173ANI     H8 3249   1.823   0.338   1.268 -0.0668 -0.9247 -0.9524
  174ANI     C1 3250   0.058   0.080   3.647  0.3907 -0.5980  0.0362
  174ANI     O1 3251   0.079   0.098   3.504  0.4277  0.5990  0.1659
  174ANI     C2 3252   0.190   0.160   3.454 -0.2715 -0.6832  0.4774
  174ANI     C3 3253   0.193   0.153   3.312 -1.5144  0.2151 -0.4195
  174ANI     C4 3254   0.277   0.237   3.239  0.2162  0.2771  0.3220
  174ANI     C5 3255   0.373   0.305   3.306 -0.3691  0.1492  0.1195
  174ANI     C6 3256   0.384   0.302   3.450 -0.0834 -0.2389  0.0619
  174ANI     C7 3257   0.289   0.227   3.525  0.0433  0.7961 -0.0276
  174ANI     H1 3258   0.152   0.045   3.692  0.5341 -0.9210 -0.5119
  174ANI     H2 3259   0.039   0.181   3.685  0.9391 -0.1400 -0.8799
  174ANI     H3 3260  -0.027   0.011   3.647 -0.5187  0.4635 -1.6866
  174ANI     H4 3261   0.124   0.087   3.260  0.9503 -1.4784 -1.6533
  174ANI     H5 3262   0.269   0.243   3.131 -0.1260 -0.2797  0.3104
  174ANI     H6 3263   0.444   0.364   3.248 -0.9909  0.5220 -0.2746
  174ANI     H7 3264   0.465   0.349   3.507 -0.7479  0.2808  0.5929
  174ANI     H8 3265   0.294   0.224   3.633 -1.1455 -1.8250 -0.0206
  175ANI     C1 3266   1.851   0.485   3.227 -0.1996 -0.2270 -0.0963
  175ANI     O1 3267   1.725   0.471   3.169 -0.4139 -0.3902  0.0109
  175ANI     C2 3268   1.647   0.353   3.181 -0.0409  0.3420 -0.1155
  175ANI     C3 3269   1.719   0.231   3.192 -0.3057  0.3219 -0.1036
  175ANI     C4 3270   1.660   0.108   3.203  0.8232  0.4306 -0.2612
  175ANI     C5 3271   1.516   0.112   3.218  0.1674 -0.0784  0.4267
  175ANI     C6 3272   1.441   0.228   3.213  0.1128 -0.0860 -0.8466
  175ANI     C7 3273   1.503   0.354   3.191 -0.7496  0.2186 -0.2067
  175ANI     H1 3274   1.897   0.584   3.216  1.3668 -0.8667  0.5881
  175ANI     H2 3275   1.833   0.475   3.335 -0.7925  1.7885  0.0177
  175ANI     H3 3276   1.929   0.414   3.198  0.8125 -0.3631  2.7904
  175ANI     H4 3277   1.827   0.235   3.192 -0.2634 -0.5894 -1.6475
  175ANI     H5 3278   1.713   0.014   3.207  0.5656  0.2350 -1.4422
  175ANI     H6 3279   1.463   0.022   3.248  1.1586  0.3957  3.7857
  175ANI     H7 3280   1.334   0.227   3.229  0.1125  1.9739 -0.6222
  175ANI     H8 3281   1.458   0.452   3.179  0.4298  0.8352  0.2926
  176ANI     C1 3282   1.234   1.386   2.291  0.1796  0.3966 -0.3221
  176ANI     O1 3283   1.360   1.441   2.246 -1.0206  0.0675  0.0707
  176ANI     C2 3284   1.466   1.458   2.337  0.3670  0.1635 -0.3562
  176ANI     C3 3285   1.596   1.494   2.290 -0.1854  0.3946  0.0226
  176ANI     C4 3286   1.706   1.510   2.377 -0.3475  0.5682 -0.0066
  176ANI     C5 3287   1.689   1.471   2.509 -0.2781  0.2058  0.1145
  176ANI     C6 3288   1.557   1.454   2.562  0.2603  0.5891  0.3535
  176ANI     C7 3289   1.446   1.452   2.478 -0.1050  0.6472  0.4587
  176ANI     H1 3290   1.167   1.348   2.214  0.3896 -0.7511  0.0588
  176ANI     H2 3291   1.252   1.303   2.360 -0.6213  0.2550 -0.2741
  176ANI     H3 3292   1.182   1.462   2.352  1.6208  0.6494  0.6299
  176ANI     H4 3293   1.613   1.502   2.183 -2.3310  0.7199 -0.3234
  176ANI     H5 3294   1.806   1.525   2.337  0.4053 -1.4382  1.0515
  176ANI     H6 3295   1.777   1.455   2.571  0.6214  2.6528 -0.4703
  176ANI     H7 3296   1.544   1.444   2.670 -0.1684 -0.1355  0.2357
  176ANI     H8 3297   1.348   1.441   2.522  1.2731  0.4220  3.6495
  177ANI     C1 3298   0.426   1.326   2.703 -0.4109  0.2293  0.6285
  177ANI     O1 3299   0.447   1.298   2.565 -0.2809 -0.2165 -0.0167
  177ANI     C2 3300   0.351   1.240   2.487 -0.1542 -0.1026 -0.3194
  177ANI     C3 3301   0.217   1.216   2.537 -0.1974  0.0284 -0.7495
  177ANI     C4 3302   0.123   1.157   2.454  0.2638  0.5875 -0.8898
  177ANI     C5 3303   0.153   1.125   2.321  0.3496  0.0097  0.5209
  177ANI     C6 3304   0.280   1.147   2.274  0.0139 -0.1497 -0.5326
  177ANI     C7 3305   0.379   1.202   2.354 -0.7162 -0.1713  0.1383
  177ANI     H1 3306   0.518   1.374   2.740  0.7016 -2.0294  0.9113
  177ANI     H2 3307   0.354   1.408   2.698  0.7686  1.2547  0.2099
  177ANI     H3 3308   0.390   1.243   2.766 -0.4744 -0.2421 -0.0209
  177ANI     H4 3309   0.191   1.251   2.637 -1.0892 -1.3113 -0.5035
  177ANI     H5 3310   0.022   1.139   2.488  1.3835 -1.0543  1.7761
  177ANI     H6 3311   0.078   1.098   2.247  0.0322  1.3379  0.3392
  177ANI     H7 3312   0.301   1.107   2.175  0.2151 -0.6112 -0.3063
  177ANI     H8 3313   0.479   1.207   2.310 -1.1410 -1.1190 -0.9625
  178ANI     C1 3314   0.058   2.872   3.120  0.8419 -0.2513 -0.1861
  178ANI     O1 3315  -0.082   2.858   3.161 -0.1044  0.0205  0.0919
  178ANI     C2 3316  -0.115   2.848   3.295 -0.3005  0.4484  0.1524
  178ANI     C3 3317  -0.027   2.830   3.400 -0.0696 -0.2920  0.5574
  178ANI     C4 3318  -0.079   2.827   3.535  0.3805 -0.7883  0.4060
  178ANI     C5 3319  -0.215   2.827   3.559  0.6441  0.6247 -0.0137
  178ANI     C6 3320  -0.306   2.838   3.455  0.1436 -0.3247  0.2120
  178ANI     C7 3321  -0.256   2.848   3.318  0.6620 -0.9825 -0.3790
  178ANI     H1 3322   0.107   2.776   3.144  1.9296  0.8322  2.1356
  178ANI     H2 3323   0.062   2.892   3.013  0.2632 -0.8746 -0.3262
  178ANI     H3 3324   0.109   2.955   3.171  0.6267  0.6980 -1.5053
  178ANI     H4 3325   0.080   2.836   3.384 -0.3508 -0.8516 -1.7006
  178ANI     H5 3326  -0.004   2.818   3.613  1.1694  1.3044 -0.0613
  178ANI     H6 3327  -0.252   2.814   3.660 -0.7782 -0.2313 -0.6295
  178ANI     H7 3328  -0.414   2.836   3.463  0.0956 -0.3618 -0.4160
  178ANI     H8 3329  -0.327   2.850   3.236 -0.5605  0.1664  0.6892
  179ANI     C1 3330   2.186   3.402   1.539  0.3337  0.7286 -0.2371
  179ANI     O1 3331   2.311   3.479   1.557  0.2835  0.4128  0.2585
  179ANI     C2 3332   2.425   3.453   1.489  0.3180  0.5027 -0.2672
  179ANI     C3 3333   2.543   3.525   1.521  0.6082 -0.0441 -0.6787
  179ANI     C4 3334   2.662   3.513   1.447  0.0843  0.0575  0.4435
  179ANI     C5 3335   2.668   3.423   1.339  0.5193  1.3346  0.3267
  179ANI     C6 3336   2.551   3.339   1.319  0.1864  0.4568  0.6979
  179ANI     C7 3337   2.430   3.353   1.387  0.0856  0.2834  0.1390
  179ANI     H1 3338   2.163   3.418   1.433  0.4454 -0.4876 -0.4531
  179ANI     H2 3339   2.206   3.297   1.565 -1.3849  0.9719  2.1889
  179ANI     H3 3340   2.103   3.434   1.603  1.3465  1.0522  0.9401
  179ANI     H4 3341   2.530   3.585   1.611 -1.4380 -0.8775 -0.3936
  179ANI     H5 3342   2.749   3.572   1.474  0.8550 -0.8892  0.0462
  179ANI     H6 3343   2.764   3.400   1.293 -0.7471 -0.1581 -1.6384
  179ANI     H7 3344   2.558   3.259   1.245 -0.1112 -0.4776  1.6754
  179ANI     H8 3345   2.348   3.289   1.356  0.2343 -1.2412  2.7216
  180ANI     C1 3346   3.228   2.940   1.554  0.4064 -0.3779  0.4361
  180ANI     O1 3347   3.106   2.894   1.586  0.3561 -0.0442 -0.2563
  180ANI     C2 3348   2.993   2.963   1.570 -0.1590  0.3433  0.1633
  180ANI     C3 3349   2.982   3.104   1.557 -0.0096  0.3750 -0.1696
  180ANI     C4 3350   2.853   3.158   1.550  0.6116 -0.0380 -0.4809
  180ANI     C5 3351   2.739   3.078   1.562 -0.5087 -0.0510  0.0579
  180ANI     C6 3352   2.757   2.942   1.575  0.2604 -0.5086  0.3582
  180ANI     C7 3353   2.882   2.892   1.581 -0.2821 -0.4522 -0.4607
  180ANI     H1 3354   3.227   2.983   1.453  0.4504 -1.4861 -0.0451
  180ANI     H2 3355   3.270   3.018   1.619  0.4027 -1.1306  1.3605
  180ANI     H3 3356   3.297   2.855   1.546  0.1454 -0.4643 -0.9382
  180ANI     H4 3357   3.067   3.170   1.543  0.5825 -0.3684 -0.0720
  180ANI     H5 3358   2.847   3.266   1.542 -1.2366 -0.0842 -0.0004
  180ANI     H6 3359   2.638   3.114   1.549 -0.3517  0.9487  1.4599
  180ANI     H7 3360   2.678   2.868   1.568 -0.0440 -0.1012 -0.7464
  180ANI     H8 3361   2.884   2.783   1.584  0.7012 -0.4140  0.1940
  181ANI     C1 3362   2.911   0.261   1.032 -0.4399 -0.3041  0.5985
  181ANI     O1 3363   2.962   0.140   0.982  0.0291  0.5715 -0.1148
  181ANI     C2 3364   3.005   0.039   1.067 -0.6955  0.3077 -0.3044
  181ANI     C3 3365   3.033  -0.086   1.012  0.2815  0.5944  0.7330
  181ANI     C4 3366   3.096  -0.189   1.085  0.2164  0.4553 -0.3610
  181ANI     C5 3367   3.123  -0.167   1.222 -0.4024 -0.1655  0.1857
  181ANI     C6 3368   3.093  -0.039   1.281 -0.0037  0.1121  0.7325
  181ANI     C7 3369   3.030   0.056   1.203  1.0122 -0.1350  0.4165
  181ANI     H1 3370   2.993   0.335   1.035 -1.4719  0.9068 -0.3578
  181ANI     H2 3371   2.826   0.291   0.970  0.6313 -0.5994 -1.0393
  181ANI     H3 3372   2.862   0.256   1.130 -1.9870 -0.8868 -0.2040
  181ANI     H4 3373   2.999  -0.110   0.912 -1.1103  1.1356  1.0623
  181ANI     H5 3374   3.118  -0.286   1.041 -1.7080  0.3837 -1.2198
  181ANI     H6 3375   3.172  -0.235   1.290 -0.7821  1.1802  1.8444
  181ANI     H7 3376   3.109  -0.016   1.386 -1.4796  1.7649  0.6192
  181ANI     H8 3377   3.005   0.142   1.264 -1.5702 -1.9709  2.0564
  182ANI     C1 3378   0.958   1.676   2.586  0.2875 -0.9972 -0.0698
  182ANI     O1 3379   1.040   1.595   2.667 -0.4049 -0.1773 -0.1648
  182ANI     C2 3380   1.063   1.463   2.668  0.1168 -0.3479  0.1348
  182ANI     C3 3381   0.971   1.368   2.601 -0.0310  0.2338 -0.1330
  182ANI     C4 3382   0.996   1.225   2.607 -0.7101  0.1510 -0.1291
  182ANI     C5 3383   1.097   1.179   2.675  0.2192 -0.7596  0.3003
  182ANI     C6 3384   1.198   1.268   2.737  0.1012  0.1374  0.1231
  182ANI     C7 3385   1.177   1.404   2.730  0.4414  0.5358  1.4589
  182ANI     H1 3386   0.853   1.676   2.616  0.9679  1.1644  2.4857
  182ANI     H2 3387   1.003   1.777   2.584 -2.6434  0.3584 -1.5054
  182ANI     H3 3388   0.969   1.640   2.483  0.8445  0.3556 -0.5014
  182ANI     H4 3389   0.898   1.412   2.532 -2.0316  1.4978  2.6706
  182ANI     H5 3390   0.920   1.160   2.566  1.1070 -2.3612  0.4041
  182ANI     H6 3391   1.105   1.071   2.687 -0.9114 -0.6257  2.4727
  182ANI     H7 3392   1.288   1.233   2.786  0.4876 -0.0597 -0.7122
  182ANI     H8 3393   1.248   1.477   2.769  0.3322  0.5442  1.6420
  183ANI     C1 3394   2.911   3.181   2.835 -0.3385 -0.4395  0.0387
  183ANI     O1 3395   2.974   3.169   2.959  0.0928 -0.8778 -0.5151
  183ANI     C2 3396   2.921   3.226   3.078 -0.6498 -0.4031 -0.3689
  183ANI     C3 3397   2.794   3.287   3.088  0.5302  0.8818 -0.0238
  183ANI     C4 3398   2.750   3.340   3.209  0.0721 -0.0900  0.6495
  183ANI     C5 3399   2.825   3.324   3.328 -0.5731  0.6392 -0.3274
  183ANI     C6 3400   2.950   3.255   3.319 -0.0205 -0.3022 -0.6159
  183ANI     C7 3401   2.994   3.216   3.194 -0.9692  0.3371  0.9954
  183ANI     H1 3402   2.820   3.119   2.843 -1.0948  0.8520  1.9478
  183ANI     H2 3403   2.887   3.283   2.804 -1.2230 -1.0291 -1.2651
  183ANI     H3 3404   2.980   3.144   2.758 -4.5067 -3.1977 -2.5594
  183ANI     H4 3405   2.738   3.316   3.000 -0.4086 -0.1941  0.2018
  183ANI     H5 3406   2.653   3.389   3.207 -0.1436 -0.5394 -0.2189
  183ANI     H6 3407   2.783   3.361   3.421  0.4901  0.3867  0.2594
  183ANI     H7 3408   3.009   3.236   3.408  0.4146  0.9706 -0.6262
  183ANI     H8 3409   3.095   3.177   3.185 -1.2920 -0.8653  2.5255
  184ANI     C1 3410   2.947   2.812   2.589 -0.1965 -1.0291  0.5919
  184ANI     O1 3411   2.923   2.699   2.671 -0.1374 -0.0651 -0.0273
  184ANI     C2 3412   2.845   2.697   2.790 -0.2920  0.3471 -1.3068
  184ANI     C3 3413   2.822   2.571   2.841 -0.0155 -0.0769  0.2728
  184ANI     C4 3414   2.741   2.555   2.955 -0.3529 -0.0964  0.1137
  184ANI     C5 3415   2.675   2.669   3.013 -0.3235  0.2910 -0.5750
  184ANI     C6 3416   2.701   2.794   2.963 -0.0711 -0.1672  0.1679
  184ANI     C7 3417   2.791   2.810   2.851  1.0207  0.9378  0.0187
  184ANI     H1 3418   2.916   2.790   2.487 -1.3166  2.4477  0.1131
  184ANI     H2 3419   2.893   2.907   2.604 -1.8272 -1.9958  0.8895
  184ANI     H3 3420   3.055   2.831   2.582 -0.6762  1.8827  0.4712
  184ANI     H4 3421   2.866   2.490   2.783  0.6457  0.2272  0.3453
  184ANI     H5 3422   2.718   2.455   2.991  1.2837 -0.5420 -0.0784
  184ANI     H6 3423   2.607   2.658   3.097  0.0585 -1.9261 -0.5182
  184ANI     H7 3424   2.651   2.876   3.015  0.7036  0.8322 -0.6425
  184ANI     H8 3425   2.810   2.909   2.811  2.0473  0.1150 -1.5589
  185ANI     C1 3426   2.706   0.333   2.904  0.5154  0.2738 -1.2649
  185ANI     O1 3427   2.696   0.465   2.850 -0.1896  0.3640 -0.8281
  185ANI     C2 3428   2.577   0.513   2.790  0.8764  0.8754 -0.3969
  185ANI     C3 3429   2.454   0.439   2.803 -0.3161 -0.1869  0.0402
  185ANI     C4 3430   2.335   0.495   2.758 -0.6637  0.0230  0.0519
  185ANI     C5 3431   2.344   0.632   2.714  0.1318 -0.5205 -0.1437
  185ANI     C6 3432   2.465   0.701   2.696  0.7118  0.0955  0.2512
  185ANI     C7 3433   2.582   0.641   2.734  0.3059 -0.1492  0.6541
  185ANI     H1 3434   2.794   0.323   2.968 -1.6753 -0.9898  1.6734
  185ANI     H2 3435   2.619   0.301   2.963  1.1391  0.6049 -0.1679
  185ANI     H3 3436   2.720   0.274   2.812 -0.3961 -2.5026  0.3048
  185ANI     H4 3437   2.450   0.336   2.838 -2.7062 -0.6137 -1.3791
  185ANI     H5 3438   2.240   0.444   2.754 -0.5421 -0.1351 -0.9642
  185ANI     H6 3439   2.253   0.685   2.686  0.7296 -0.2038 -1.5810
  185ANI     H7 3440   2.472   0.802   2.655  1.0205 -0.6994 -1.7521
  185ANI     H8 3441   2.674   0.697   2.723 -0.4609  1.1197  0.5749
  186ANI     C1 3442   2.873   1.404   1.466  0.4006 -0.1721  0.0082
  186ANI     O1 3443   2.778   1.367   1.567  0.1394 -0.4743  0.1159
  186ANI     C2 3444   2.642   1.386   1.557 -0.0930 -0.0254 -0.2563
  186ANI     C3 3445   2.599   1.514   1.511 -0.0548  0.4928 -0.5633
  186ANI     C4 3446   2.467   1.529   1.494  0.4022 -0.3863  1.1052
  186ANI     C5 3447   2.375   1.434   1.547  0.5536  0.6017  0.3634
  186ANI     C6 3448   2.421   1.308   1.573  0.4630 -0.1357 -0.3709
  186ANI     C7 3449   2.550   1.280   1.580 -0.5167 -0.1617 -0.1551
  186ANI     H1 3450   2.967   1.352   1.490  2.0762  1.7584 -2.1466
  186ANI     H2 3451   2.846   1.373   1.364  0.5025 -2.4464  0.6301
  186ANI     H3 3452   2.887   1.512   1.467 -0.6705  0.1253 -4.6248
  186ANI     H4 3453   2.675   1.588   1.486  1.0422 -0.8329 -1.2166
  186ANI     H5 3454   2.424   1.619   1.451  2.1243 -0.8869 -1.7757
  186ANI     H6 3455   2.268   1.451   1.551  0.2166 -1.6503  1.3666
  186ANI     H7 3456   2.355   1.223   1.589 -1.0670  1.0794 -0.0736
  186ANI     H8 3457   2.585   1.178   1.589 -1.1136 -0.4484 -1.0556
  187ANI     C1 3458   3.174   0.033   2.533 -0.0256  0.5700 -0.1188
  187ANI     O1 3459   3.173  -0.114   2.557 -0.5741  0.1275 -0.5042
  187ANI     C2 3460   3.213  -0.197   2.460  0.4947 -0.0750 -0.2841
  187ANI     C3 3461   3.289  -0.151   2.355 -0.3795  0.2260 -0.1346
  187ANI     C4 3462   3.320  -0.238   2.245  0.2079 -0.4012 -0.2209
  187ANI     C5 3463   3.274  -0.373   2.252  0.8167  0.2856 -0.0017
  187ANI     C6 3464   3.203  -0.420   2.365 -0.1048  0.0469  0.0821
  187ANI     C7 3465   3.175  -0.332   2.474 -0.2568  0.4445 -0.0191
  187ANI     H1 3466   3.130   0.087   2.618  0.6995 -0.1398  0.6981
  187ANI     H2 3467   3.269   0.078   2.503  0.5169 -0.0190  0.7327
  187ANI     H3 3468   3.104   0.057   2.451 -2.3796 -4.2717  0.2657
  187ANI     H4 3469   3.340  -0.055   2.356  0.7805 -0.3721 -0.9455
  187ANI     H5 3470   3.390  -0.211   2.167  0.5051  2.1370  0.8856
  187ANI     H6 3471   3.295  -0.436   2.166 -1.9927  3.7747 -3.4201
  187ANI     H7 3472   3.164  -0.520   2.380 -2.0183  0.7188 -0.1552
  187ANI     H8 3473   3.115  -0.376   2.554  0.4604  2.3519  1.6114
  188ANI     C1 3474   0.592   2.332   2.961  0.8573  0.6100 -0.1603
  188ANI     O1 3475   0.464   2.329   2.894  1.1559  0.1598  0.0857
  188ANI     C2 3476   0.376   2.427   2.904  0.5114 -0.0477  0.0015
  188ANI     C3 3477   0.251   2.422   2.838  0.8057 -0.2370 -0.0908
  188ANI     C4 3478   0.164   2.535   2.839 -0.8834  0.0339  0.4268
  188ANI     C5 3479   0.205   2.651   2.908 -0.1782 -0.1696  0.2254
  188ANI     C6 3480   0.327   2.653   2.980  0.9058 -0.2159 -0.3200
  188ANI     C7 3481   0.418   2.548   2.972 -0.2073  0.4841  0.2861
  188ANI     H1 3482   0.653   2.409   2.912  0.6091  0.9937  0.1309
  188ANI     H2 3483   0.581   2.345   3.069  1.8109 -0.4377  0.0645
  188ANI     H3 3484   0.639   2.234   2.949 -2.3975 -1.0620  0.1019
  188ANI     H4 3485   0.222   2.330   2.788  1.5597  0.0678 -1.1143
  188ANI     H5 3486   0.066   2.543   2.793  0.1324  2.3997 -1.4670
  188ANI     H6 3487   0.135   2.733   2.909 -0.8631 -0.6568 -2.7790
  188ANI     H7 3488   0.347   2.746   3.032 -1.7512  0.1474  0.1402
  188ANI     H8 3489   0.515   2.563   3.019 -0.1302  1.7844 -0.2855
  189ANI     C1 3490   1.436   2.107   0.992  0.5000 -0.1247  0.0490
  189ANI     O1 3491   1.391   1.988   0.928  0.2383 -0.4141 -0.3989
  189ANI     C2 3492   1.305   1.985   0.819  0.2932 -0.1245 -1.3871
  189ANI     C3 3493   1.290   1.862   0.756  0.4740  0.2126  0.1781
  189ANI     C4 3494   1.215   1.836   0.641 -0.1797  0.3604 -0.1242
  189ANI     C5 3495   1.152   1.946   0.589 -0.1985 -0.4078 -0.1880
  189ANI     C6 3496   1.163   2.074   0.645 -0.8079 -0.3712 -0.4194
  189ANI     C7 3497   1.243   2.096   0.764 -0.3435 -0.3600  0.1876
  189ANI     H1 3498   1.511   2.091   1.071  0.3489 -0.1574  0.1838
  189ANI     H2 3499   1.490   2.165   0.916  0.6772  2.1869  1.8782
  189ANI     H3 3500   1.347   2.161   1.025  0.4606  0.2764 -0.6969
  189ANI     H4 3501   1.340   1.780   0.808  2.1900  2.5015  2.2712
  189ANI     H5 3502   1.198   1.735   0.607  2.0797  0.5672 -1.9481
  189ANI     H6 3503   1.103   1.932   0.492 -0.7070  0.4160 -0.0627
  189ANI     H7 3504   1.119   2.152   0.583 -2.0060 -2.0800 -1.7730
  189ANI     H8 3505   1.247   2.199   0.797 -1.2957 -0.6454  1.2151
  190ANI     C1 3506   2.602   0.740   1.560 -0.0017 -1.0352 -0.2240
  190ANI     O1 3507   2.747   0.746   1.565  0.5728 -0.0005  0.1050
  190ANI     C2 3508   2.823   0.706   1.458 -0.6317  0.2023  0.4999
  190ANI     C3 3509   2.772   0.645   1.345  0.2742 -0.1468 -0.9372
  190ANI     C4 3510   2.856   0.614   1.234  0.6754 -0.0386  0.1556
  190ANI     C5 3511   2.989   0.645   1.239 -0.3289 -0.0268  0.3656
  190ANI     C6 3512   3.040   0.698   1.357  0.2678  0.4311  0.2433
  190ANI     C7 3513   2.961   0.735   1.465 -0.1565  0.1769  0.6190
  190ANI     H1 3514   2.572   0.636   1.541  0.2439 -1.2334  0.4512
  190ANI     H2 3515   2.543   0.790   1.638 -0.0120  1.2198 -1.6236
  190ANI     H3 3516   2.565   0.795   1.472 -1.8217 -1.5384  0.1995
  190ANI     H4 3517   2.667   0.619   1.345 -0.1523  1.4186  0.8357
  190ANI     H5 3518   2.809   0.567   1.148  0.5984 -1.2147  0.8239
  190ANI     H6 3519   3.052   0.614   1.157 -0.9820  1.5100 -0.7378
  190ANI     H7 3520   3.148   0.710   1.361  0.1037  1.6498  1.3009
  190ANI     H8 3521   3.002   0.773   1.558  0.9976 -1.5950  0.8624
  191ANI     C1 3522   1.740   0.856   2.236 -0.1607  0.2389 -0.0925
  191ANI     O1 3523   1.747   1.001   2.246  0.1592 -0.6543  0.7072
  191ANI     C2 3524   1.862   1.074   2.248 -0.5902  0.5336  0.4635
  191ANI     C3 3525   1.983   1.005   2.234 -0.0798 -0.7611  0.3023
  191ANI     C4 3526   2.103   1.085   2.224  0.1079 -0.0092 -0.5071
  191ANI     C5 3527   2.100   1.227   2.222 -0.0156 -0.6161  0.8807
  191ANI     C6 3528   1.976   1.288   2.237 -0.8528  0.1133 -0.5085
  191ANI     C7 3529   1.861   1.217   2.259  0.3490  0.1267  0.1293
  191ANI     H1 3530   1.763   0.817   2.336 -0.9007 -1.0728 -0.4295
  191ANI     H2 3531   1.639   0.823   2.211 -1.2932  2.0279  1.8694
  191ANI     H3 3532   1.811   0.822   2.160 -0.3136 -0.0192 -0.1161
  191ANI     H4 3533   1.984   0.897   2.226  2.2574 -0.6913 -0.5731
  191ANI     H5 3534   2.195   1.029   2.212  0.3760  0.9049 -3.0111
  191ANI     H6 3535   2.191   1.286   2.212  0.3515 -1.2127  0.6229
  191ANI     H7 3536   1.971   1.396   2.251  0.1573  0.3315 -1.7491
  191ANI     H8 3537   1.768   1.270   2.277 -0.8806 -1.5636 -1.0003
  192ANI     C1 3538   2.556   2.798   2.499 -0.0254  0.4374  0.2968
  192ANI     O1 3539   2.583   2.707   2.390  0.1888 -0.4175 -0.7008
  192ANI     C2 3540   2.532   2.579   2.384 -0.2447 -0.6356 -0.4433
  192ANI     C3 3541   2.445   2.521   2.481 -0.1127  0.1029 -0.8810
  192ANI     C4 3542   2.394   2.396   2.468  0.7433 -0.4959  0.2717
  192ANI     C5 3543   2.426   2.319   2.352  0.7539 -0.7396  0.2936
  192ANI     C6 3544   2.506   2.373   2.255  0.4735  0.3684 -0.1913
  192ANI     C7 3545   2.561   2.506   2.268 -0.3074 -0.4086 -0.0469
  192ANI     H1 3546   2.604   2.895   2.480 -0.0893  0.2963 -0.6030
  192ANI     H2 3547   2.449   2.821   2.505 -0.2785 -0.6422  0.0960
  192ANI     H3 3548   2.601   2.762   2.592 -0.1666 -0.4616  0.0233
  192ANI     H4 3549   2.429   2.578   2.572  2.3375  0.1430 -0.4491
  192ANI     H5 3550   2.324   2.349   2.536  0.3532  0.5927  0.6446
  192ANI     H6 3551   2.371   2.228   2.330  0.6095  0.0665 -3.0505
  192ANI     H7 3552   2.513   2.308   2.169 -0.8182 -0.4735  0.3158
  192ANI     H8 3553   2.628   2.547   2.192  0.8368  1.3093  1.8306
  193ANI     C1 3554   3.243   1.378   0.031 -0.4892  0.0934 -0.6295
  193ANI     O1 3555   3.169   1.489   0.091 -0.2595 -0.1445 -0.3558
  193ANI     C2 3556   3.158   1.612   0.032  0.0756  0.5959 -0.1415
  193ANI     C3 3557   3.073   1.699   0.092  0.0583 -0.4376  0.1739
  193ANI     C4 3558   3.052   1.829   0.035  0.1664 -0.2507 -0.1111
  193ANI     C5 3559   3.113   1.861  -0.086 -0.1412 -0.8743  0.3206
  193ANI     C6 3560   3.199   1.771  -0.149 -0.7386  0.2903 -0.4198
  193ANI     C7 3561   3.224   1.647  -0.087 -0.6020 -0.9347  0.0593
  193ANI     H1 3562   3.345   1.409   0.003 -0.5792  1.2914  0.3546
  193ANI     H2 3563   3.243   1.297   0.105 -0.7702  1.1674  0.5450
  193ANI     H3 3564   3.202   1.344  -0.065  1.4607 -0.6173 -1.2535
  193ANI     H4 3565   3.023   1.666   0.182  0.5438  2.6244  1.6215
  193ANI     H5 3566   2.993   1.911   0.075  2.1977  2.3401 -2.2416
  193ANI     H6 3567   3.101   1.959  -0.132  0.5179 -0.3273  1.2935
  193ANI     H7 3568   3.259   1.798  -0.236 -2.9095  1.5290 -1.5580
  193ANI     H8 3569   3.299   1.577  -0.125 -0.1548 -0.4714  0.0926
  194ANI     C1 3570   1.081   0.121   1.160 -0.0418  0.2665 -1.0886
  194ANI     O1 3571   1.043   0.258   1.141  0.5438 -0.5714 -0.3032
  194ANI     C2 3572   0.930   0.307   1.074 -0.7475  0.5547  0.3592
  194ANI     C3 3573   0.866   0.224   0.982 -0.2191 -0.5629 -0.2580
  194ANI     C4 3574   0.770   0.275   0.901  0.5217 -0.4500 -0.2566
  194ANI     C5 3575   0.723   0.409   0.924  0.1469  0.0463 -0.0186
  194ANI     C6 3576   0.785   0.489   1.022 -0.2038 -0.2760 -0.0405
  194ANI     C7 3577   0.888   0.436   1.095 -0.2289 -0.0589 -0.0352
  194ANI     H1 3578   1.084   0.065   1.065  2.1018  2.9366 -2.6704
  194ANI     H2 3579   1.182   0.110   1.203 -0.6453 -0.4532  0.1731
  194ANI     H3 3580   1.022   0.070   1.237  0.4023 -0.4644 -1.2240
  194ANI     H4 3581   0.904   0.125   0.956 -0.7055 -0.4601 -1.4030
  194ANI     H5 3582   0.735   0.202   0.828 -1.2138  1.9073 -1.8657
  194ANI     H6 3583   0.644   0.448   0.861  0.1535 -1.4727 -1.0031
  194ANI     H7 3584   0.754   0.591   1.039  1.1155 -0.3414  3.0677
  194ANI     H8 3585   0.940   0.496   1.170  0.5733 -0.3840 -0.3272
  195ANI     C1 3586   2.121   2.786   1.269  0.0944  0.8436  0.0948
  195ANI     O1 3587   2.095   2.755   1.133 -0.7065 -0.3719  0.1363
  195ANI     C2 3588   2.010   2.822   1.050 -0.6330  0.1904  0.0595
  195ANI     C3 3589   1.989   2.776   0.923 -1.0943  0.5200 -0.0241
  195ANI     C4 3590   1.907   2.846   0.835 -0.3942  0.1379  0.1114
  195ANI     C5 3591   1.841   2.961   0.869  0.4632 -0.7857  0.4710
  195ANI     C6 3592   1.853   3.015   1.000  0.2161 -0.3478 -0.5525
  195ANI     C7 3593   1.943   2.946   1.094 -0.5434  0.0744  0.1550
  195ANI     H1 3594   2.174   2.710   1.328 -1.2208 -0.7241 -0.6966
  195ANI     H2 3595   2.187   2.874   1.271  1.8087 -0.4455  2.1965
  195ANI     H3 3596   2.031   2.813   1.325 -0.5670 -0.3364 -0.3712
  195ANI     H4 3597   2.039   2.685   0.889 -2.7808 -0.1703 -0.6950
  195ANI     H5 3598   1.880   2.797   0.742 -0.9781 -0.7586  0.7432
  195ANI     H6 3599   1.785   3.005   0.787 -0.7855 -1.3922  0.9760
  195ANI     H7 3600   1.809   3.111   1.027  0.1751 -0.7990  1.0075
  195ANI     H8 3601   1.967   2.983   1.194  2.6585  0.0691 -0.5521
  196ANI     C1 3602   1.286   1.945   0.199  0.6329 -0.6456 -0.2152
  196ANI     O1 3603   1.399   2.031   0.193 -0.0377 -0.3421 -0.0418
  196ANI     C2 3604   1.456   2.097   0.298 -0.9510  1.2451  0.3011
  196ANI     C3 3605   1.428   2.072   0.436 -0.4111 -0.7053  0.0279
  196ANI     C4 3606   1.494   2.145   0.537 -0.8938 -0.1532  0.0626
  196ANI     C5 3607   1.584   2.246   0.501 -0.1635  0.2585  0.3238
  196ANI     C6 3608   1.604   2.276   0.366 -0.0498  0.1013 -0.6782
  196ANI     C7 3609   1.548   2.198   0.263 -0.2580 -0.1164  0.3383
  196ANI     H1 3610   1.200   2.009   0.218  1.2968  0.2313 -0.1312
  196ANI     H2 3611   1.280   1.893   0.102  0.1391  1.5604 -1.3903
  196ANI     H3 3612   1.301   1.867   0.275 -0.3901 -1.5329 -0.9016
  196ANI     H4 3613   1.348   2.002   0.459 -2.5299  1.8200  0.5366
  196ANI     H5 3614   1.489   2.119   0.642  1.6244 -0.4208  0.1470
  196ANI     H6 3615   1.625   2.303   0.584  0.1683  0.7139 -0.1501
  196ANI     H7 3616   1.676   2.355   0.347  0.6946 -0.0392  1.4498
  196ANI     H8 3617   1.575   2.215   0.159  3.7230 -1.3397  1.0659
  197ANI     C1 3618   0.883   3.100   1.548  0.1002  0.0177 -0.0080
  197ANI     O1 3619   0.950   3.207   1.603 -0.1863 -0.3712 -0.3091
  197ANI     C2 3620   1.064   3.268   1.545 -0.1286 -0.5509  0.0617
  197ANI     C3 3621   1.145   3.194   1.449  0.3946  0.8404 -0.1959
  197ANI     C4 3622   1.244   3.265   1.383 -0.2890  0.6036  0.1022
  197ANI     C5 3623   1.279   3.396   1.423  0.8635 -0.2194  0.0525
  197ANI     C6 3624   1.211   3.461   1.526 -0.4238  0.6498 -0.2353
  197ANI     C7 3625   1.101   3.401   1.586 -0.1326 -0.4361  1.2897
  197ANI     H1 3626   0.939   3.006   1.556  2.9208  1.6515 -0.1981
  197ANI     H2 3627   0.786   3.082   1.596  0.0674 -0.1817 -0.1501
  197ANI     H3 3628   0.850   3.118   1.445 -1.2986  5.4392  1.2332
  197ANI     H4 3629   1.120   3.093   1.417 -0.3689  1.3535 -1.2675
  197ANI     H5 3630   1.285   3.207   1.301 -4.5855 -1.7133 -0.5796
  197ANI     H6 3631   1.363   3.447   1.375  2.3657  0.6258  3.4378
  197ANI     H7 3632   1.247   3.560   1.553 -0.0622  0.3271  0.4696
  197ANI     H8 3633   1.035   3.457   1.652  2.3408  0.3442  3.1596
  198ANI     C1 3634   0.334   2.268   3.665  0.0344  0.0874 -0.3618
  198ANI     O1 3635   0.406   2.355   3.744 -0.4024  0.1898  0.6225
  198ANI     C2 3636   0.430   2.346   3.881 -0.3599  0.0104 -0.7654
  198ANI     C3 3637   0.469   2.459   3.947 -0.5711 -0.8746 -0.1956
  198ANI     C4 3638   0.480   2.475   4.090  0.3552  0.4684 -0.2650
  198ANI     C5 3639   0.460   2.355   4.161 -0.3036 -0.4176  0.1641
  198ANI     C6 3640   0.410   2.237   4.099 -0.3395 -0.7387 -0.7643
  198ANI     C7 3641   0.409   2.229   3.957 -0.2007 -0.9207  0.2182
  198ANI     H1 3642   0.226   2.286   3.676  0.1059  0.7898 -0.7635
  198ANI     H2 3643   0.354   2.282   3.558  1.5602  2.4754  0.1938
  198ANI     H3 3644   0.336   2.161   3.689 -0.7404  0.3503  0.9415
  198ANI     H4 3645   0.487   2.546   3.884  0.8036 -2.2292 -1.7295
  198ANI     H5 3646   0.502   2.563   4.149  0.8654 -0.5721  1.1263
  198ANI     H6 3647   0.474   2.355   4.269 -0.7691  0.1412  0.2253
  198ANI     H7 3648   0.373   2.159   4.165  2.0475 -1.5709 -0.3452
  198ANI     H8 3649   0.365   2.140   3.914  1.7931 -0.2896 -3.3866
  199ANI     C1 3650   2.473   0.682   3.476 -0.0777  0.3842 -0.4571
  199ANI     O1 3651   2.507   0.677   3.611 -0.2161  0.5982  0.4017
  199ANI     C2 3652   2.430   0.741   3.712  0.3897  0.2655  0.2993
  199ANI     C3 3653   2.485   0.743   3.839  0.3823 -0.6014  0.0756
  199ANI     C4 3654   2.411   0.802   3.940 -0.3139  0.5145  0.4330
  199ANI     C5 3655   2.288   0.874   3.922 -0.1607  0.2331 -0.0664
  199ANI     C6 3656   2.235   0.868   3.792 -0.3784  0.0455  0.1069
  199ANI     C7 3657   2.305   0.803   3.685  0.0268  0.7361 -0.2695
  199ANI     H1 3658   2.555   0.642   3.416 -0.5490  1.2096 -1.6761
  199ANI     H2 3659   2.382   0.624   3.459 -0.8806  1.1572  1.1228
  199ANI     H3 3660   2.454   0.785   3.441 -0.8170 -0.1370 -1.6349
  199ANI     H4 3661   2.588   0.708   3.851  0.6515 -0.8740 -2.7415
  199ANI     H5 3662   2.451   0.808   4.041 -0.0451  0.9691  0.3009
  199ANI     H6 3663   2.237   0.931   4.000  0.0294 -1.5206  1.3816
  199ANI     H7 3664   2.142   0.923   3.781  0.0087  0.9223  1.0940
  199ANI     H8 3665   2.259   0.806   3.586 -0.6657  1.2532  0.0634
  200ANI     C1 3666   1.650   2.746   1.110  0.4344  0.5745 -0.6641
  200ANI     O1 3667   1.562   2.841   1.182  0.3191  0.6027 -0.2919
  200ANI     C2 3668   1.489   2.802   1.288  0.0654 -0.2996 -0.0711
  200ANI     C3 3669   1.506   2.677   1.359 -0.1926 -1.0386 -0.6406
  200ANI     C4 3670   1.450   2.660   1.489  0.7765  0.5591 -0.0312
  200ANI     C5 3671   1.359   2.751   1.530 -0.1093  0.5893  0.1959
  200ANI     C6 3672   1.338   2.871   1.461 -0.5894 -0.0261 -0.0561
  200ANI     C7 3673   1.403   2.898   1.339 -0.7371  0.2262  0.3388
  200ANI     H1 3674   1.719   2.801   1.045  0.4738  1.0302 -0.2384
  200ANI     H2 3675   1.709   2.685   1.180  1.9007  1.3768 -1.1718
  200ANI     H3 3676   1.589   2.681   1.046 -2.1792  1.1167  1.2091
  200ANI     H4 3677   1.579   2.601   1.330 -0.1940 -1.7644  1.2018
  200ANI     H5 3678   1.481   2.570   1.540  0.9043  1.2870  1.1874
  200ANI     H6 3679   1.302   2.746   1.622 -3.7194  1.2545 -1.8946
  200ANI     H7 3680   1.291   2.954   1.514  0.5820 -0.1604  1.2190
  200ANI     H8 3681   1.400   2.999   1.297 -0.2329  0.3774  0.6581
  201ANI     C1 3682   0.464   3.086   1.194 -0.3581 -0.4107  0.5117
  201ANI     O1 3683   0.528   2.993   1.114  0.2605  0.8720 -0.4289
  201ANI     C2 3684   0.534   2.983   0.979  0.0573  0.2211 -0.7617
  201ANI     C3 3685   0.567   2.852   0.933 -0.6167  0.1751 -0.4702
  201ANI     C4 3686   0.551   2.812   0.795  0.5076 -0.4384 -0.2945
  201ANI     C5 3687   0.517   2.916   0.709 -0.2912  0.1851  0.4085
  201ANI     C6 3688   0.503   3.052   0.750 -0.2720  0.1931  0.1017
  201ANI     C7 3689   0.500   3.085   0.887  0.9012  0.2730 -0.4352
  201ANI     H1 3690   0.382   3.139   1.143 -0.2765  1.0042  1.8204
  201ANI     H2 3691   0.434   3.042   1.289  0.3368 -1.1337  0.3965
  201ANI     H3 3692   0.526   3.172   1.223  0.5734 -0.6579 -0.7236
  201ANI     H4 3693   0.605   2.775   0.999  2.0576  2.2655  0.5227
  201ANI     H5 3694   0.567   2.709   0.766  0.6367  0.2090 -2.6487
  201ANI     H6 3695   0.495   2.888   0.607 -0.6078  0.1937  0.4741
  201ANI     H7 3696   0.492   3.133   0.678 -0.1792 -0.3595 -0.5387
  201ANI     H8 3697   0.482   3.185   0.924  1.1640 -0.4923  1.8693
  202ANI     C1 3698   0.333   0.831   1.463 -0.6942 -0.0854 -0.4539
  202ANI     O1 3699   0.342   0.729   1.365  0.0711  0.7321  0.0311
  202ANI     C2 3700   0.407   0.609   1.386 -0.2000  0.5539 -0.2020
  202ANI     C3 3701   0.470   0.538   1.282  0.4721 -0.6421 -0.1379
  202ANI     C4 3702   0.520   0.409   1.299  0.3157  0.1260 -0.4321
  202ANI     C5 3703   0.526   0.357   1.428  0.2166 -0.1655  0.4271
  202ANI     C6 3704   0.468   0.424   1.535 -0.3687 -0.4110  0.7104
  202ANI     C7 3705   0.402   0.550   1.512  0.9558  0.2412 -0.3682
  202ANI     H1 3706   0.285   0.803   1.558 -0.4667 -0.2598 -0.3916
  202ANI     H2 3707   0.430   0.875   1.488 -1.3492  1.4617 -0.5326
  202ANI     H3 3708   0.274   0.913   1.420  0.3510 -0.4126 -2.5453
  202ANI     H4 3709   0.491   0.586   1.187  2.4167 -3.0196 -0.9568
  202ANI     H5 3710   0.565   0.352   1.218  1.2708  1.5724 -0.9490
  202ANI     H6 3711   0.568   0.258   1.448  0.9468  0.1922  0.6819
  202ANI     H7 3712   0.470   0.379   1.634  2.4395  3.3881  2.4823
  202ANI     H8 3713   0.354   0.587   1.602 -0.5926 -2.7749  0.1119
  203ANI     C1 3714   0.403   1.731   2.596  0.7752 -0.0867  0.2977
  203ANI     O1 3715   0.411   1.860   2.663 -0.0953  0.2708  0.5153
  203ANI     C2 3716   0.327   1.894   2.765 -0.0802 -0.1136 -0.4711
  203ANI     C3 3717   0.248   1.800   2.831  0.0986  0.1990  0.6147
  203ANI     C4 3718   0.173   1.830   2.946  0.8517  0.3554 -0.0640
  203ANI     C5 3719   0.187   1.956   3.005 -0.3242 -1.0026  0.2039
  203ANI     C6 3720   0.273   2.056   2.944  0.5404 -0.3120 -0.1134
  203ANI     C7 3721   0.329   2.022   2.817  0.5937  0.1943  0.1215
  203ANI     H1 3722   0.461   1.744   2.504 -0.1932 -0.7648 -0.4169
  203ANI     H2 3723   0.435   1.645   2.656  0.5320  1.0571  2.1176
  203ANI     H3 3724   0.302   1.709   2.560  0.7629  1.0295 -0.3611
  203ANI     H4 3725   0.250   1.699   2.793  0.6229  0.6507 -0.5793
  203ANI     H5 3726   0.109   1.757   2.994  2.0489 -1.1334 -0.6960
  203ANI     H6 3727   0.129   1.979   3.094  1.0122 -0.8608  1.0542
  203ANI     H7 3728   0.284   2.155   2.986 -0.1303 -0.3519  0.1664
  203ANI     H8 3729   0.385   2.096   2.760  0.3725 -0.1918 -0.6038
  204ANI     C1 3730   0.760   2.174   1.301 -0.3314  0.1731 -0.2287
  204ANI     O1 3731   0.626   2.196   1.248  0.1775 -0.2366  0.2784
  204ANI     C2 3732   0.572   2.106   1.164 -1.0719 -0.2354  0.3559
  204ANI     C3 3733   0.442   2.128   1.124  0.6363 -0.5405  0.1660
  204ANI     C4 3734   0.377   2.051   1.021 -0.1935 -0.1125 -0.0260
  204ANI     C5 3735   0.443   1.943   0.962  0.5956  0.2796 -0.5076
  204ANI     C6 3736   0.580   1.918   1.010  0.3711 -0.7084  1.0130
  204ANI     C7 3737   0.642   1.993   1.104  0.6669 -0.4094  0.1959
  204ANI     H1 3738   0.780   2.073   1.339 -1.7956  0.0561  0.2343
  204ANI     H2 3739   0.832   2.187   1.219  1.5075 -3.4687  0.6783
  204ANI     H3 3740   0.768   2.245   1.384  1.5599 -0.0737 -0.1617
  204ANI     H4 3741   0.385   2.206   1.172  0.0446 -0.3639 -0.8013
  204ANI     H5 3742   0.281   2.075   0.976 -0.0680  0.6399  0.1102
  204ANI     H6 3743   0.400   1.888   0.879  0.7997  0.9835 -1.0932
  204ANI     H7 3744   0.642   1.848   0.954  0.8805  0.7552 -0.2924
  204ANI     H8 3745   0.743   1.967   1.134  1.7017  1.7724 -1.1924
  205ANI     C1 3746   2.087   1.288   3.726  0.5641  0.2198 -0.2916
  205ANI     O1 3747   2.153   1.354   3.613 -0.4582 -0.4567 -0.1829
  205ANI     C2 3748   2.208   1.286   3.509 -0.7694  0.7003 -0.0983
  205ANI     C3 3749   2.202   1.146   3.492  0.1280 -0.9037 -0.1394
  205ANI     C4 3750   2.269   1.083   3.382  0.5227 -0.1477 -0.5577
  205ANI     C5 3751   2.333   1.158   3.282 -0.0785  0.4015 -0.8290
  205ANI     C6 3752   2.330   1.306   3.293  0.1831 -0.2323 -0.6783
  205ANI     C7 3753   2.265   1.365   3.408  0.0632  0.5528 -0.6383
  205ANI     H1 3754   2.145   1.205   3.767 -0.9465 -2.0681 -2.6460
  205ANI     H2 3755   2.065   1.371   3.795 -2.1135  0.7628 -1.7341
  205ANI     H3 3756   1.993   1.251   3.682 -0.1590  1.1905  0.4054
  205ANI     H4 3757   2.142   1.084   3.558  0.6695 -1.4854 -0.1883
  205ANI     H5 3758   2.262   0.977   3.356  1.7333 -0.1653 -0.8543
  205ANI     H6 3759   2.387   1.111   3.200  1.6505 -2.4567  1.8655
  205ANI     H7 3760   2.378   1.378   3.227  1.2847 -0.5919 -0.2904
  205ANI     H8 3761   2.262   1.473   3.410  0.7069  0.5599  0.5980
  206ANI     C1 3762   2.734   1.716   2.965  0.1453 -0.0403 -0.1142
  206ANI     O1 3763   2.681   1.617   3.058  0.1378 -0.2846 -0.8334
  206ANI     C2 3764   2.752   1.499   3.077  0.3542 -0.7458 -0.0848
  206ANI     C3 3765   2.828   1.437   2.981  0.0299 -0.0995 -0.1021
  206ANI     C4 3766   2.902   1.319   3.006 -0.0673 -0.6703  0.0980
  206ANI     C5 3767   2.912   1.273   3.133 -0.5686  0.0014  0.1844
  206ANI     C6 3768   2.839   1.335   3.238 -0.6946  0.1488 -0.4395
  206ANI     C7 3769   2.748   1.443   3.208  0.0324  0.4042 -0.0688
  206ANI     H1 3770   2.655   1.791   2.957  1.7465  1.8377  1.1862
  206ANI     H2 3771   2.830   1.764   2.988  1.1666 -2.9665  2.2509
  206ANI     H3 3772   2.743   1.677   2.863 -0.2499  0.9068 -0.5059
  206ANI     H4 3773   2.824   1.478   2.881 -1.4485 -0.3701 -0.1704
  206ANI     H5 3774   2.962   1.280   2.925 -0.7333  0.7647 -1.0943
  206ANI     H6 3775   2.975   1.187   3.155 -1.6202 -0.7374  0.3449
  206ANI     H7 3776   2.852   1.303   3.341 -0.3093  3.8056  0.7332
  206ANI     H8 3777   2.693   1.485   3.291  0.3492 -1.5829  1.1793
  207ANI     C1 3778   2.385   3.296   2.281  0.7266  0.2258 -0.2657
  207ANI     O1 3779   2.459   3.178   2.266 -0.2629  0.4150 -0.2523
  207ANI     C2 3780   2.600   3.175   2.259 -0.1472  0.8271  0.0314
  207ANI     C3 3781   2.678   3.294   2.277 -0.0963 -0.6784  0.5513
  207ANI     C4 3782   2.823   3.285   2.272  0.1532  0.3110 -0.2622
  207ANI     C5 3783   2.880   3.158   2.241  0.7284  0.4787 -0.8493
  207ANI     C6 3784   2.803   3.051   2.213  0.3106 -0.3820 -0.2184
  207ANI     C7 3785   2.662   3.052   2.231 -0.1346 -0.4101  0.5220
  207ANI     H1 3786   2.424   3.382   2.226  1.6301  0.7231  1.1121
  207ANI     H2 3787   2.287   3.287   2.233  0.9602  0.2532 -0.7447
  207ANI     H3 3788   2.360   3.315   2.387  0.1548 -0.3883 -0.2881
  207ANI     H4 3789   2.630   3.389   2.296 -0.5894 -0.8465  0.1591
  207ANI     H5 3790   2.879   3.378   2.275 -1.5063  1.2936  0.6484
  207ANI     H6 3791   2.988   3.150   2.240  0.5982 -1.7465 -1.5924
  207ANI     H7 3792   2.853   2.957   2.190 -0.2374 -0.6292 -0.3932
  207ANI     H8 3793   2.604   2.961   2.218 -1.8386  0.8370 -0.7755
  208ANI     C1 3794   0.455   3.402   2.531 -0.0029 -0.2299  0.0896
  208ANI     O1 3795   0.504   3.294   2.448  0.2427  0.0255 -0.2188
  208ANI     C2 3796   0.417   3.200   2.398 -0.4998 -0.3958 -0.0747
  208ANI     C3 3797   0.465   3.107   2.307  0.4126  0.1986  0.7049
  208ANI     C4 3798   0.378   3.005   2.258  0.6107  0.6367 -0.2956
  208ANI     C5 3799   0.245   2.996   2.304 -0.4283  0.3035 -0.0587
  208ANI     C6 3800   0.200   3.095   2.387  0.1880 -0.3261  0.9215
  208ANI     C7 3801   0.283   3.199   2.435 -0.0403  0.4288  0.1781
  208ANI     H1 3802   0.370   3.457   2.489  2.8419  1.2923 -3.9744
  208ANI     H2 3803   0.410   3.356   2.620  2.6882 -1.2012  1.0039
  208ANI     H3 3804   0.541   3.466   2.554 -1.2947  1.8615 -0.7556
  208ANI     H4 3805   0.566   3.110   2.269  0.1855  0.2318  0.0985
  208ANI     H5 3806   0.395   2.929   2.182 -1.1126  0.0025 -0.0784
  208ANI     H6 3807   0.187   2.913   2.266 -0.0195 -0.7144  1.4994
  208ANI     H7 3808   0.097   3.094   2.420 -0.2565  0.5058 -0.4348
  208ANI     H8 3809   0.245   3.279   2.498 -2.5574 -1.1234  0.7254
  209ANI     C1 3810   2.554   3.204   0.133 -0.1942  0.4177 -0.5551
  209ANI     O1 3811   2.584   3.214  -0.011  0.0604  0.1282  0.0713
  209ANI     C2 3812   2.707   3.177  -0.057  0.9167  0.1881  0.2679
  209ANI     C3 3813   2.719   3.119  -0.182  0.5318 -0.1804 -0.5113
  209ANI     C4 3814   2.845   3.082  -0.226 -0.0931 -0.5368  0.4391
  209ANI     C5 3815   2.963   3.105  -0.149 -0.2880 -0.3436  0.6923
  209ANI     C6 3816   2.950   3.170  -0.023 -0.0217  0.2090 -0.0807
  209ANI     C7 3817   2.821   3.194   0.021  0.1681  0.4051 -0.3005
  209ANI     H1 3818   2.606   3.278   0.196  0.3259 -0.1120 -0.3598
  209ANI     H2 3819   2.445   3.210   0.146  0.0888 -0.1763  2.4588
  209ANI     H3 3820   2.582   3.104   0.169 -0.7504  0.4701  0.0132
  209ANI     H4 3821   2.633   3.109  -0.248  0.9139  0.0559 -1.0427
  209ANI     H5 3822   2.851   3.035  -0.324 -1.5819  0.1919 -0.0243
  209ANI     H6 3823   3.067   3.095  -0.180  0.4335  1.5108  2.3627
  209ANI     H7 3824   3.034   3.187   0.043  0.9025 -0.5326 -1.0593
  209ANI     H8 3825   2.805   3.242   0.117 -1.8990 -0.2929 -0.2762
  210ANI     C1 3826   0.490   0.780   0.460 -0.3531 -0.2368 -0.2667
  210ANI     O1 3827   0.538   0.654   0.509  0.5772 -0.4703 -0.5804
  210ANI     C2 3828   0.648   0.646   0.589  0.7560  0.0670 -0.4587
  210ANI     C3 3829   0.690   0.759   0.675  0.4391  0.3745  0.4922
  210ANI     C4 3830   0.807   0.751   0.747 -0.5602 -0.3926 -0.3332
  210ANI     C5 3831   0.882   0.638   0.743 -0.1755  0.1053  0.2068
  210ANI     C6 3832   0.846   0.531   0.664 -0.5640  0.1435  0.3701
  210ANI     C7 3833   0.725   0.530   0.587  0.5468  0.4382  0.3989
  210ANI     H1 3834   0.451   0.842   0.542 -0.5821 -0.0443 -0.5209
  210ANI     H2 3835   0.573   0.838   0.417 -1.0253  0.7360 -0.2831
  210ANI     H3 3836   0.412   0.761   0.386 -1.5367  0.3743  0.8116
  210ANI     H4 3837   0.624   0.845   0.681 -1.2438 -0.7120 -1.8200
  210ANI     H5 3838   0.848   0.833   0.805  0.9498 -1.3894  0.0329
  210ANI     H6 3839   0.985   0.638   0.779 -0.3523  0.8438  0.7060
  210ANI     H7 3840   0.907   0.441   0.662 -1.5226 -0.5463  1.3680
  210ANI     H8 3841   0.690   0.446   0.528 -0.1757  1.5849 -0.8447
  211ANI     C1 3842   0.561   3.354   3.491 -0.2722  0.1036 -0.2220
  211ANI     O1 3843   0.648   3.361   3.602 -0.1321 -0.1898  0.6085
  211ANI     C2 3844   0.598   3.399   3.729 -0.0894  0.4473  0.5914
  211ANI     C3 3845   0.463   3.427   3.748  0.5716  1.1607  0.2287
  211ANI     C4 3846   0.411   3.461   3.866 -0.4272 -0.0711 -0.8545
  211ANI     C5 3847   0.500   3.456   3.975  0.1261 -0.0145  0.1738
  211ANI     C6 3848   0.633   3.425   3.958  0.6000  0.2780  1.0270
  211ANI     C7 3849   0.689   3.395   3.835 -0.8460 -0.0656 -0.3270
  211ANI     H1 3850   0.475   3.292   3.520 -0.5360  0.2851 -0.6036
  211ANI     H2 3851   0.527   3.456   3.466  1.5305  1.2488  1.8667
  211ANI     H3 3852   0.602   3.310   3.399 -0.0850 -0.6985  0.2468
  211ANI     H4 3853   0.397   3.431   3.661 -1.7824 -1.5254  1.8242
  211ANI     H5 3854   0.308   3.492   3.882 -0.1310 -0.2104  1.4644
  211ANI     H6 3855   0.463   3.468   4.076  0.0189 -0.9858  0.2470
  211ANI     H7 3856   0.693   3.408   4.047  1.0064 -1.6911  0.4003
  211ANI     H8 3857   0.795   3.374   3.825 -1.1276 -1.0568 -1.3750
  212ANI     C1 3858   0.079   1.919   1.570  0.4291 -0.0748 -0.2662
  212ANI     O1 3859  -0.055   1.979   1.578  0.1079  0.6649  0.1045
  212ANI     C2 3860  -0.172   1.903   1.565 -0.0797 -0.0186  0.1317
  212ANI     C3 3861  -0.168   1.760   1.569  0.1009 -0.9427  0.1297
  212ANI     C4 3862  -0.288   1.693   1.573  0.3619 -0.1606  0.2304
  212ANI     C5 3863  -0.406   1.761   1.581 -0.8378  1.1977 -0.8218
  212ANI     C6 3864  -0.419   1.895   1.574 -0.3514 -0.0091 -0.6830
  212ANI     C7 3865  -0.295   1.972   1.571 -0.1159  0.3010 -0.5001
  212ANI     H1 3866   0.158   1.992   1.551  1.7220 -1.9326 -2.1908
  212ANI     H2 3867   0.094   1.850   1.655  4.3815  2.9032  1.6304
  212ANI     H3 3868   0.090   1.849   1.486 -3.4059  1.0507 -1.7993
  212ANI     H4 3869  -0.069   1.715   1.569  0.7232  0.3880 -0.7391
  212ANI     H5 3870  -0.284   1.585   1.584 -0.9695 -0.0420  2.1188
  212ANI     H6 3871  -0.497   1.704   1.600 -0.1140  0.3369  0.0779
  212ANI     H7 3872  -0.516   1.942   1.583 -1.5075 -2.4852  0.3264
  212ANI     H8 3873  -0.304   2.080   1.564 -1.0834  0.2440 -0.2976
  213ANI     C1 3874   1.051   3.343   0.291 -0.0397  0.8182  0.4209
  213ANI     O1 3875   1.030   3.361   0.150 -0.4948 -0.6410 -0.8031
  213ANI     C2 3876   1.028   3.250   0.065 -0.1545 -0.3137 -0.4553
  213ANI     C3 3877   1.022   3.278  -0.073  0.0722 -0.0222  0.1899
  213ANI     C4 3878   1.002   3.182  -0.169  0.4960 -0.7255  0.2864
  213ANI     C5 3879   0.986   3.049  -0.127 -0.7382  0.6527 -0.6286
  213ANI     C6 3880   1.001   3.013   0.012 -0.0921 -0.6466 -0.0300
  213ANI     C7 3881   1.017   3.116   0.111  0.7215  0.3821 -0.0124
  213ANI     H1 3882   1.007   3.426   0.348 -1.7726  0.3607 -0.2219
  213ANI     H2 3883   0.999   3.258   0.335  1.4275 -0.7462 -0.7778
  213ANI     H3 3884   1.157   3.325   0.311  0.0815  1.0185 -0.0205
  213ANI     H4 3885   1.029   3.383  -0.099  3.1767 -0.2335 -0.0023
  213ANI     H5 3886   0.991   3.200  -0.275 -2.1523  1.0032  0.7962
  213ANI     H6 3887   0.981   2.974  -0.205  1.3940  0.2569 -0.4068
  213ANI     H7 3888   1.002   2.907   0.036  1.5619 -0.6498 -0.0118
  213ANI     H8 3889   1.027   3.091   0.216 -1.8305 -0.1701  0.1504
  214ANI     C1 3890   0.216   1.044   0.630 -0.1969 -0.0211 -0.0851
  214ANI     O1 3891   0.278   1.010   0.502 -0.6421 -0.5453  0.6401
  214ANI     C2 3892   0.266   1.089   0.385 -0.1629  0.1513 -0.2285
  214ANI     C3 3893   0.344   1.059   0.278 -0.3445 -0.7616  0.1117
  214ANI     C4 3894   0.317   1.122   0.152 -0.5385  0.5181 -0.1738
  214ANI     C5 3895   0.211   1.214   0.142 -0.5420 -0.4994  0.1370
  214ANI     C6 3896   0.143   1.252   0.256  0.1709  0.7126 -0.7007
  214ANI     C7 3897   0.169   1.187   0.378  0.1163  0.0108 -0.7827
  214ANI     H1 3898   0.108   1.029   0.616 -0.5237  1.0888  1.1573
  214ANI     H2 3899   0.260   0.974   0.702  1.0246  1.2853  0.4612
  214ANI     H3 3900   0.238   1.144   0.669  0.2249 -1.2736  3.0562
  214ANI     H4 3901   0.427   0.990   0.290 -0.7006 -0.9682  1.3609
  214ANI     H5 3902   0.373   1.096   0.063 -2.4915  0.8224 -1.5054
  214ANI     H6 3903   0.187   1.274   0.054 -1.6731 -0.8161  0.2203
  214ANI     H7 3904   0.070   1.332   0.252 -1.8163 -0.9979  0.2540
  214ANI     H8 3905   0.105   1.206   0.464 -1.0171 -1.1924 -1.3481
  215ANI     C1 3906   0.498   1.489   0.885 -0.2296  0.2985 -0.8072
  215ANI     O1 3907   0.430   1.459   1.007 -0.3871 -1.0246 -0.4068
  215ANI     C2 3908   0.407   1.326   1.041  0.1965 -0.4242 -0.0132
  215ANI     C3 3909   0.466   1.211   0.975  0.2950  0.4412 -0.2381
  215ANI     C4 3910   0.439   1.080   1.022 -0.1870 -0.3130 -0.3977
  215ANI     C5 3911   0.350   1.059   1.133  0.3724  1.0124 -0.1092
  215ANI     C6 3912   0.281   1.172   1.186  0.3316 -0.4789 -0.4544
  215ANI     C7 3913   0.314   1.300   1.153  0.1679 -0.2788  0.6986
  215ANI     H1 3914   0.601   1.451   0.885 -0.3992 -0.1684  0.1467
  215ANI     H2 3915   0.441   1.448   0.801  2.1086 -0.8230 -1.9142
  215ANI     H3 3916   0.502   1.597   0.868  0.5059 -0.1005 -3.5549
  215ANI     H4 3917   0.535   1.222   0.892  0.2917  2.1364 -0.0306
  215ANI     H5 3918   0.479   0.990   0.977  0.1194 -0.6729  0.5709
  215ANI     H6 3919   0.330   0.959   1.169 -0.0964  0.1912 -2.5241
  215ANI     H7 3920   0.223   1.151   1.276 -1.2241 -0.8288 -1.5084
  215ANI     H8 3921   0.265   1.382   1.204  1.3789 -0.3396  1.9887
  216ANI     C1 3922   0.025   2.959   0.217  0.6616  0.0399 -0.3947
  216ANI     O1 3923  -0.034   3.002   0.094 -0.3442 -0.1810  0.1157
  216ANI     C2 3924   0.045   3.051  -0.007  0.5922 -0.2780  0.4042
  216ANI     C3 3925  -0.022   3.126  -0.104 -0.0142  0.4280  0.6722
  216ANI     C4 3926   0.048   3.169  -0.216  0.4905 -0.5981  0.2638
  216ANI     C5 3927   0.186   3.137  -0.229 -0.3624 -0.7150 -0.9760
  216ANI     C6 3928   0.256   3.075  -0.126 -0.1861  0.1072  0.0311
  216ANI     C7 3929   0.184   3.024  -0.018 -0.3215  0.2246  0.3458
  216ANI     H1 3930   0.082   2.866   0.210  0.4047 -0.0312 -1.6324
  216ANI     H2 3931   0.089   3.037   0.259  0.5930  0.6184 -1.3573
  216ANI     H3 3932  -0.047   2.939   0.297 -0.2277  1.6534 -0.7666
  216ANI     H4 3933  -0.128   3.149  -0.097  0.1319  1.2033  0.4390
  216ANI     H5 3934  -0.012   3.221  -0.290 -1.7530  0.2859  2.6277
  216ANI     H6 3935   0.244   3.165  -0.316 -1.9043  1.1442 -1.4516
  216ANI     H7 3936   0.360   3.045  -0.139  0.1742  0.8175  1.2578
  216ANI     H8 3937   0.235   2.961   0.054 -0.1129 -0.4323 -0.3674
  217ANI     C1 3938   1.840   1.782   3.047 -0.5185  0.0587 -0.4630
  217ANI     O1 3939   1.781   1.678   3.142 -0.3919 -0.7532  0.4357
  217ANI     C2 3940   1.837   1.550   3.163 -0.5782  0.2982 -0.5713
  217ANI     C3 3941   1.966   1.517   3.114  0.4782  0.2325  0.8115
  217ANI     C4 3942   2.012   1.385   3.127 -0.7358 -0.1888 -0.6788
  217ANI     C5 3943   1.931   1.292   3.191  0.6489 -0.0819  0.2941
  217ANI     C6 3944   1.814   1.322   3.248 -0.3861 -0.0686 -0.4800
  217ANI     C7 3945   1.765   1.454   3.236  0.2807  0.1434 -0.0136
  217ANI     H1 3946   1.858   1.738   2.948 -1.0586 -2.4508  0.4971
  217ANI     H2 3947   1.769   1.864   3.034  0.4544  0.6019 -2.6087
  217ANI     H3 3948   1.926   1.824   3.101  0.0108  0.1489 -1.3639
  217ANI     H4 3949   2.033   1.586   3.064 -0.4025  1.9938  2.0093
  217ANI     H5 3950   2.114   1.362   3.099 -1.0778 -0.7034 -1.5103
  217ANI     H6 3951   1.964   1.189   3.194  0.8397 -0.0503 -0.6968
  217ANI     H7 3952   1.757   1.245   3.299  0.1877  1.4888  2.5946
  217ANI     H8 3953   1.663   1.476   3.267  0.3577 -0.4225  0.6570
  218ANI     C1 3954   2.787   2.422   3.342  0.4025  0.2270  0.2069
  218ANI     O1 3955   2.654   2.439   3.293  0.0760  0.0655 -0.0327
  218ANI     C2 3956   2.545   2.411   3.375  0.2536  0.5893 -0.2211
  218ANI     C3 3957   2.427   2.484   3.353 -0.2481 -0.1824  0.3544
  218ANI     C4 3958   2.319   2.476   3.440  0.1919 -0.1411  0.0541
  218ANI     C5 3959   2.322   2.373   3.541 -0.3821  0.4038  0.1406
  218ANI     C6 3960   2.439   2.301   3.569  0.1088 -0.1081  0.1992
  218ANI     C7 3961   2.551   2.320   3.486  0.5042 -0.6801 -0.4127
  218ANI     H1 3962   2.800   2.481   3.433 -0.7057  1.4053 -0.3936
  218ANI     H2 3963   2.812   2.318   3.367  1.9655 -0.1686 -2.7549
  218ANI     H3 3964   2.858   2.463   3.269 -1.9677 -0.9033 -2.8538
  218ANI     H4 3965   2.419   2.549   3.266 -1.0287  0.8301  1.1716
  218ANI     H5 3966   2.235   2.545   3.433 -0.2309 -0.8661 -2.7795
  218ANI     H6 3967   2.239   2.366   3.611 -1.6221 -0.4307 -1.4066
  218ANI     H7 3968   2.431   2.242   3.659  0.7267  1.2796  1.1711
  218ANI     H8 3969   2.639   2.257   3.494  0.8895 -0.1820 -0.6442
   3.40320   3.43847   3.80000
