DMF comparator n4
 4173
    1GR      C1    1   0.000   0.000   1.900  0.0000  0.0000  0.0000
    1GR      C2    2   0.142   0.000   1.900  0.0000  0.0000  0.0000
    1GR      C3    3   0.213   0.123   1.900  0.0000  0.0000  0.0000
    1GR      C4    4   0.354   0.123   1.900  0.0000  0.0000  0.0000
    1GR      C5    5   0.000   0.246   1.900  0.0000  0.0000  0.0000
    1GR      C6    6   0.142   0.246   1.900  0.0000  0.0000  0.0000
    1GR      C7    7   0.213   0.368   1.900  0.0000  0.0000  0.0000
    1GR      C8    8   0.354   0.368   1.900  0.0000  0.0000  0.0000
    1GR      C9    9   0.000   0.491   1.900  0.0000  0.0000  0.0000
    1GR     C10   10   0.142   0.491   1.900  0.0000  0.0000  0.0000
    1GR     C11   11   0.213   0.614   1.900  0.0000  0.0000  0.0000
    1GR     C12   12   0.354   0.614   1.900  0.0000  0.0000  0.0000
    1GR     C13   13   0.000   0.737   1.900  0.0000  0.0000  0.0000
    1GR     C14   14   0.142   0.737   1.900  0.0000  0.0000  0.0000
    1GR     C15   15   0.213   0.860   1.900  0.0000  0.0000  0.0000
    1GR     C16   16   0.354   0.860   1.900  0.0000  0.0000  0.0000
    1GR     C17   17   0.000   0.982   1.900  0.0000  0.0000  0.0000
    1GR     C18   18   0.142   0.982   1.900  0.0000  0.0000  0.0000
    1GR     C19   19   0.213   1.105   1.900  0.0000  0.0000  0.0000
    1GR     C20   20   0.354   1.105   1.900  0.0000  0.0000  0.0000
    1GR     C21   21   0.000   1.228   1.900  0.0000  0.0000  0.0000
    1GR     C22   22   0.142   1.228   1.900  0.0000  0.0000  0.0000
    1GR     C23   23   0.213   1.351   1.900  0.0000  0.0000  0.0000
    1GR     C24   24   0.354   1.351   1.900  0.0000  0.0000  0.0000
    1GR     C25   25   0.000   1.474   1.900  0.0000  0.0000  0.0000
    1GR     C26   26   0.142   1.474   1.900  0.0000  0.0000  0.0000
    1GR     C27   27   0.213   1.596   1.900  0.0000  0.0000  0.0000
    1GR     C28   28   0.354   1.596   1.900  0.0000  0.0000  0.0000
    1GR     C29   29   0.000   1.719   1.900  0.0000  0.0000  0.0000
    1GR     C30   30   0.142   1.719   1.900  0.0000  0.0000  0.0000
    1GR     C31   31   0.213   1.842   1.900  0.0000  0.0000  0.0000
    1GR     C32   32   0.354   1.842   1.900  0.0000  0.0000  0.0000
    1GR     C33   33   0.000   1.965   1.900  0.0000  0.0000  0.0000
    1GR     C34   34   0.142   1.965   1.900  0.0000  0.0000  0.0000
    1GR     C35   35   0.213   2.088   1.900  0.0000  0.0000  0.0000
    1GR     C36   36   0.354   2.088   1.900  0.0000  0.0000  0.0000
    1GR     C37   37   0.000   2.210   1.900  0.0000  0.0000  0.0000
    1GR     C38   38   0.142   2.210   1.900  0.0000  0.0000  0.0000
    1GR     C39   39   0.213   2.333   1.900  0.0000  0.0000  0.0000
    1GR     C40   40   0.354   2.333   1.900  0.0000  0.0000  0.0000
    1GR     C41   41   0.000   2.456   1.900  0.0000  0.0000  0.0000
    1GR     C42   42   0.142   2.456   1.900  0.0000  0.0000  0.0000
    1GR     C43   43   0.213   2.579   1.900  0.0000  0.0000  0.0000
    1GR     C44   44   0.354   2.579   1.900  0.0000  0.0000  0.0000
    1GR     C45   45   0.000   2.702   1.900  0.0000  0.0000  0.0000
    1GR     C46   46   0.142   2.702   1.900  0.0000  0.0000  0.0000
    1GR     C47   47   0.213   2.824   1.900  0.0000  0.0000  0.0000
    1GR     C48   48   0.354   2.824   1.900  0.0000  0.0000  0.0000
    1GR     C49   49   0.000   2.947   1.900  0.0000  0.0000  0.0000
    1GR     C50   50   0.142   2.947   1.900  0.0000  0.0000  0.0000
    1GR     C51   51   0.213   3.070   1.900  0.0000  0.0000  0.0000
    1GR     C52   52   0.354   3.070   1.900  0.0000  0.0000  0.0000
    1GR     C53   53   0.000   3.193   1.900  0.0000  0.0000  0.0000
    1GR     C54   54   0.142   3.193   1.900  0.0000  0.0000  0.0000
    1GR     C55   55   0.213   3.316   1.900  0.0000  0.0000  0.0000
    1GR     C56   56   0.354   3.316   1.900  0.0000  0.0000  0.0000
    1GR     C57   57   0.425   0.000   1.900  0.0000  0.0000  0.0000
    1GR     C58   58   0.567   0.000   1.900  0.0000  0.0000  0.0000
    1GR     C59   59   0.638   0.123   1.900  0.0000  0.0000  0.0000
    1GR     C60   60   0.780   0.123   1.900  0.0000  0.0000  0.0000
    1GR     C61   61   0.425   0.246   1.900  0.0000  0.0000  0.0000
    1GR     C62   62   0.567   0.246   1.900  0.0000  0.0000  0.0000
    1GR     C63   63   0.638   0.368   1.900  0.0000  0.0000  0.0000
    1GR     C64   64   0.780   0.368   1.900  0.0000  0.0000  0.0000
    1GR     C65   65   0.425   0.491   1.900  0.0000  0.0000  0.0000
    1GR     C66   66   0.567   0.491   1.900  0.0000  0.0000  0.0000
    1GR     C67   67   0.638   0.614   1.900  0.0000  0.0000  0.0000
    1GR     C68   68   0.780   0.614   1.900  0.0000  0.0000  0.0000
    1GR     C69   69   0.425   0.737   1.900  0.0000  0.0000  0.0000
    1GR     C70   70   0.567   0.737   1.900  0.0000  0.0000  0.0000
    1GR     C71   71   0.638   0.860   1.900  0.0000  0.0000  0.0000
    1GR     C72   72   0.780   0.860   1.900  0.0000  0.0000  0.0000
    1GR     C73   73   0.425   0.982   1.900  0.0000  0.0000  0.0000
    1GR     C74   74   0.567   0.982   1.900  0.0000  0.0000  0.0000
    1GR     C75   75   0.638   1.105   1.900  0.0000  0.0000  0.0000
    1GR     C76   76   0.780   1.105   1.900  0.0000  0.0000  0.0000
    1GR     C77   77   0.425   1.228   1.900  0.0000  0.0000  0.0000
    1GR     C78   78   0.567   1.228   1.900  0.0000  0.0000  0.0000
    1GR     C79   79   0.638   1.351   1.900  0.0000  0.0000  0.0000
    1GR     C80   80   0.780   1.351   1.900  0.0000  0.0000  0.0000
    1GR     C81   81   0.425   1.474   1.900  0.0000  0.0000  0.0000
    1GR     C82   82   0.567   1.474   1.900  0.0000  0.0000  0.0000
    1GR     C83   83   0.638   1.596   1.900  0.0000  0.0000  0.0000
    1GR     C84   84   0.780   1.596   1.900  0.0000  0.0000  0.0000
    1GR     C85   85   0.425   1.719   1.900  0.0000  0.0000  0.0000
    1GR     C86   86   0.567   1.719   1.900  0.0000  0.0000  0.0000
    1GR     C87   87   0.638   1.842   1.900  0.0000  0.0000  0.0000
    1GR     C88   88   0.780   1.842   1.900  0.0000  0.0000  0.0000
    1GR     C89   89   0.425   1.965   1.900  0.0000  0.0000  0.0000
    1GR     C90   90   0.567   1.965   1.900  0.0000  0.0000  0.0000
    1GR     C91   91   0.638   2.088   1.900  0.0000  0.0000  0.0000
    1GR     C92   92   0.780   2.088   1.900  0.0000  0.0000  0.0000
    1GR     C93   93   0.425   2.210   1.900  0.0000  0.0000  0.0000
    1GR     C94   94   0.567   2.210   1.900  0.0000  0.0000  0.0000
    1GR     C95   95   0.638   2.333   1.900  0.0000  0.0000  0.0000
    1GR     C96   96   0.780   2.333   1.900  0.0000  0.0000  0.0000
    1GR     C97   97   0.425   2.456   1.900  0.0000  0.0000  0.0000
    1GR     C98   98   0.567   2.456   1.900  0.0000  0.0000  0.0000
    1GR     C99   99   0.638   2.579   1.900  0.0000  0.0000  0.0000
    1GR    C100  100   0.780   2.579   1.900  0.0000  0.0000  0.0000
    1GR    C101  101   0.425   2.702   1.900  0.0000  0.0000  0.0000
    1GR    C102  102   0.567   2.702   1.900  0.0000  0.0000  0.0000
    1GR    C103  103   0.638   2.824   1.900  0.0000  0.0000  0.0000
    1GR    C104  104   0.780   2.824   1.900  0.0000  0.0000  0.0000
    1GR    C105  105   0.425   2.947   1.900  0.0000  0.0000  0.0000
    1GR    C106  106   0.567   2.947   1.900  0.0000  0.0000  0.0000
    1GR    C107  107   0.638   3.070   1.900  0.0000  0.0000  0.0000
    1GR    C108  108   0.780   3.070   1.900  0.0000  0.0000  0.0000
    1GR    C109  109   0.425   3.193   1.900  0.0000  0.0000  0.0000
    1GR    C110  110   0.567   3.193   1.900  0.0000  0.0000  0.0000
    1GR    C111  111   0.638   3.316   1.900  0.0000  0.0000  0.0000
    1GR    C112  112   0.780   3.316   1.900  0.0000  0.0000  0.0000
    1GR    C113  113   0.851   0.000   1.900  0.0000  0.0000  0.0000
    1GR    C114  114   0.993   0.000   1.900  0.0000  0.0000  0.0000
    1GR    C115  115   1.064   0.123   1.900  0.0000  0.0000  0.0000
    1GR    C116  116   1.205   0.123   1.900  0.0000  0.0000  0.0000
    1GR    C117  117   0.851   0.246   1.900  0.0000  0.0000  0.0000
    1GR    C118  118   0.993   0.246   1.900  0.0000  0.0000  0.0000
    1GR    C119  119   1.064   0.368   1.900  0.0000  0.0000  0.0000
    1GR    C120  120   1.205   0.368   1.900  0.0000  0.0000  0.0000
    1GR    C121  121   0.851   0.491   1.900  0.0000  0.0000  0.0000
    1GR    C122  122   0.993   0.491   1.900  0.0000  0.0000  0.0000
    1GR    C123  123   1.064   0.614   1.900  0.0000  0.0000  0.0000
    1GR    C124  124   1.205   0.614   1.900  0.0000  0.0000  0.0000
    1GR    C125  125   0.851   0.737   1.900  0.0000  0.0000  0.0000
    1GR    C126  126   0.993   0.737   1.900  0.0000  0.0000  0.0000
    1GR    C127  127   1.064   0.860   1.900  0.0000  0.0000  0.0000
    1GR    C128  128   1.205   0.860   1.900  0.0000  0.0000  0.0000
    1GR    C129  129   0.851   0.982   1.900  0.0000  0.0000  0.0000
    1GR    C130  130   0.993   0.982   1.900  0.0000  0.0000  0.0000
    1GR    C131  131   1.064   1.105   1.900  0.0000  0.0000  0.0000
    1GR    C132  132   1.205   1.105   1.900  0.0000  0.0000  0.0000
    1GR    C133  133   0.851   1.228   1.900  0.0000  0.0000  0.0000
    1GR    C134  134   0.993   1.228   1.900  0.0000  0.0000  0.0000
    1GR    C135  135   1.064   1.351   1.900  0.0000  0.0000  0.0000
    1GR    C136  136   1.205   1.351   1.900  0.0000  0.0000  0.0000
    1GR    C137  137   0.851   1.474   1.900  0.0000  0.0000  0.0000
    1GR    C138  138   0.993   1.474   1.900  0.0000  0.0000  0.0000
    1GR    C139  139   1.064   1.596   1.900  0.0000  0.0000  0.0000
    1GR    C140  140   1.205   1.596   1.900  0.0000  0.0000  0.0000
    1GR    C141  141   0.851   1.719   1.900  0.0000  0.0000  0.0000
    1GR    C142  142   0.993   1.719   1.900  0.0000  0.0000  0.0000
    1GR    C143  143   1.064   1.842   1.900  0.0000  0.0000  0.0000
    1GR    C144  144   1.205   1.842   1.900  0.0000  0.0000  0.0000
    1GR    C145  145   0.851   1.965   1.900  0.0000  0.0000  0.0000
    1GR    C146  146   0.993   1.965   1.900  0.0000  0.0000  0.0000
    1GR    C147  147   1.064   2.088   1.900  0.0000  0.0000  0.0000
    1GR    C148  148   1.205   2.088   1.900  0.0000  0.0000  0.0000
    1GR    C149  149   0.851   2.210   1.900  0.0000  0.0000  0.0000
    1GR    C150  150   0.993   2.210   1.900  0.0000  0.0000  0.0000
    1GR    C151  151   1.064   2.333   1.900  0.0000  0.0000  0.0000
    1GR    C152  152   1.205   2.333   1.900  0.0000  0.0000  0.0000
    1GR    C153  153   0.851   2.456   1.900  0.0000  0.0000  0.0000
    1GR    C154  154   0.993   2.456   1.900  0.0000  0.0000  0.0000
    1GR    C155  155   1.064   2.579   1.900  0.0000  0.0000  0.0000
    1GR    C156  156   1.205   2.579   1.900  0.0000  0.0000  0.0000
    1GR    C157  157   0.851   2.702   1.900  0.0000  0.0000  0.0000
    1GR    C158  158   0.993   2.702   1.900  0.0000  0.0000  0.0000
    1GR    C159  159   1.064   2.824   1.900  0.0000  0.0000  0.0000
    1GR    C160  160   1.205   2.824   1.900  0.0000  0.0000  0.0000
    1GR    C161  161   0.851   2.947   1.900  0.0000  0.0000  0.0000
    1GR    C162  162   0.993   2.947   1.900  0.0000  0.0000  0.0000
    1GR    C163  163   1.064   3.070   1.900  0.0000  0.0000  0.0000
    1GR    C164  164   1.205   3.070   1.900  0.0000  0.0000  0.0000
    1GR    C165  165   0.851   3.193   1.900  0.0000  0.0000  0.0000
    1GR    C166  166   0.993   3.193   1.900  0.0000  0.0000  0.0000
    1GR    C167  167   1.064   3.316   1.900  0.0000  0.0000  0.0000
    1GR    C168  168   1.205   3.316   1.900  0.0000  0.0000  0.0000
    1GR    C169  169   1.276   0.000   1.900  0.0000  0.0000  0.0000
    1GR    C170  170   1.418   0.000   1.900  0.0000  0.0000  0.0000
    1GR    C171  171   1.489   0.123   1.900  0.0000  0.0000  0.0000
    1GR    C172  172   1.631   0.123   1.900  0.0000  0.0000  0.0000
    1GR    C173  173   1.276   0.246   1.900  0.0000  0.0000  0.0000
    1GR    C174  174   1.418   0.246   1.900  0.0000  0.0000  0.0000
    1GR    C175  175   1.489   0.368   1.900  0.0000  0.0000  0.0000
    1GR    C176  176   1.631   0.368   1.900  0.0000  0.0000  0.0000
    1GR    C177  177   1.276   0.491   1.900  0.0000  0.0000  0.0000
    1GR    C178  178   1.418   0.491   1.900  0.0000  0.0000  0.0000
    1GR    C179  179   1.489   0.614   1.900  0.0000  0.0000  0.0000
    1GR    C180  180   1.631   0.614   1.900  0.0000  0.0000  0.0000
    1GR    C181  181   1.276   0.737   1.900  0.0000  0.0000  0.0000
    1GR    C182  182   1.418   0.737   1.900  0.0000  0.0000  0.0000
    1GR    C183  183   1.489   0.860   1.900  0.0000  0.0000  0.0000
    1GR    C184  184   1.631   0.860   1.900  0.0000  0.0000  0.0000
    1GR    C185  185   1.276   0.982   1.900  0.0000  0.0000  0.0000
    1GR    C186  186   1.418   0.982   1.900  0.0000  0.0000  0.0000
    1GR    C187  187   1.489   1.105   1.900  0.0000  0.0000  0.0000
    1GR    C188  188   1.631   1.105   1.900  0.0000  0.0000  0.0000
    1GR    C189  189   1.276   1.228   1.900  0.0000  0.0000  0.0000
    1GR    C190  190   1.418   1.228   1.900  0.0000  0.0000  0.0000
    1GR    C191  191   1.489   1.351   1.900  0.0000  0.0000  0.0000
    1GR    C192  192   1.631   1.351   1.900  0.0000  0.0000  0.0000
    1GR    C193  193   1.276   1.474   1.900  0.0000  0.0000  0.0000
    1GR    C194  194   1.418   1.474   1.900  0.0000  0.0000  0.0000
    1GR    C195  195   1.489   1.596   1.900  0.0000  0.0000  0.0000
    1GR    C196  196   1.631   1.596   1.900  0.0000  0.0000  0.0000
    1GR    C197  197   1.276   1.719   1.900  0.0000  0.0000  0.0000
    1GR    C198  198   1.418   1.719   1.900  0.0000  0.0000  0.0000
    1GR    C199  199   1.489   1.842   1.900  0.0000  0.0000  0.0000
    1GR    C200  200   1.631   1.842   1.900  0.0000  0.0000  0.0000
    1GR    C201  201   1.276   1.965   1.900  0.0000  0.0000  0.0000
    1GR    C202  202   1.418   1.965   1.900  0.0000  0.0000  0.0000
    1GR    C203  203   1.489   2.088   1.900  0.0000  0.0000  0.0000
    1GR    C204  204   1.631   2.088   1.900  0.0000  0.0000  0.0000
    1GR    C205  205   1.276   2.210   1.900  0.0000  0.0000  0.0000
    1GR    C206  206   1.418   2.210   1.900  0.0000  0.0000  0.0000
    1GR    C207  207   1.489   2.333   1.900  0.0000  0.0000  0.0000
    1GR    C208  208   1.631   2.333   1.900  0.0000  0.0000  0.0000
    1GR    C209  209   1.276   2.456   1.900  0.0000  0.0000  0.0000
    1GR    C210  210   1.418   2.456   1.900  0.0000  0.0000  0.0000
    1GR    C211  211   1.489   2.579   1.900  0.0000  0.0000  0.0000
    1GR    C212  212   1.631   2.579   1.900  0.0000  0.0000  0.0000
    1GR    C213  213   1.276   2.702   1.900  0.0000  0.0000  0.0000
    1GR    C214  214   1.418   2.702   1.900  0.0000  0.0000  0.0000
    1GR    C215  215   1.489   2.824   1.900  0.0000  0.0000  0.0000
    1GR    C216  216   1.631   2.824   1.900  0.0000  0.0000  0.0000
    1GR    C217  217   1.276   2.947   1.900  0.0000  0.0000  0.0000
    1GR    C218  218   1.418   2.947   1.900  0.0000  0.0000  0.0000
    1GR    C219  219   1.489   3.070   1.900  0.0000  0.0000  0.0000
    1GR    C220  220   1.631   3.070   1.900  0.0000  0.0000  0.0000
    1GR    C221  221   1.276   3.193   1.900  0.0000  0.0000  0.0000
    1GR    C222  222   1.418   3.193   1.900  0.0000  0.0000  0.0000
    1GR    C223  223   1.489   3.316   1.900  0.0000  0.0000  0.0000
    1GR    C224  224   1.631   3.316   1.900  0.0000  0.0000  0.0000
    1GR    C225  225   1.702   0.000   1.900  0.0000  0.0000  0.0000
    1GR    C226  226   1.843   0.000   1.900  0.0000  0.0000  0.0000
    1GR    C227  227   1.914   0.123   1.900  0.0000  0.0000  0.0000
    1GR    C228  228   2.056   0.123   1.900  0.0000  0.0000  0.0000
    1GR    C229  229   1.702   0.246   1.900  0.0000  0.0000  0.0000
    1GR    C230  230   1.843   0.246   1.900  0.0000  0.0000  0.0000
    1GR    C231  231   1.914   0.368   1.900  0.0000  0.0000  0.0000
    1GR    C232  232   2.056   0.368   1.900  0.0000  0.0000  0.0000
    1GR    C233  233   1.702   0.491   1.900  0.0000  0.0000  0.0000
    1GR    C234  234   1.843   0.491   1.900  0.0000  0.0000  0.0000
    1GR    C235  235   1.914   0.614   1.900  0.0000  0.0000  0.0000
    1GR    C236  236   2.056   0.614   1.900  0.0000  0.0000  0.0000
    1GR    C237  237   1.702   0.737   1.900  0.0000  0.0000  0.0000
    1GR    C238  238   1.843   0.737   1.900  0.0000  0.0000  0.0000
    1GR    C239  239   1.914   0.860   1.900  0.0000  0.0000  0.0000
    1GR    C240  240   2.056   0.860   1.900  0.0000  0.0000  0.0000
    1GR    C241  241   1.702   0.982   1.900  0.0000  0.0000  0.0000
    1GR    C242  242   1.843   0.982   1.900  0.0000  0.0000  0.0000
    1GR    C243  243   1.914   1.105   1.900  0.0000  0.0000  0.0000
    1GR    C244  244   2.056   1.105   1.900  0.0000  0.0000  0.0000
    1GR    C245  245   1.702   1.228   1.900  0.0000  0.0000  0.0000
    1GR    C246  246   1.843   1.228   1.900  0.0000  0.0000  0.0000
    1GR    C247  247   1.914   1.351   1.900  0.0000  0.0000  0.0000
    1GR    C248  248   2.056   1.351   1.900  0.0000  0.0000  0.0000
    1GR    C249  249   1.702   1.474   1.900  0.0000  0.0000  0.0000
    1GR    C250  250   1.843   1.474   1.900  0.0000  0.0000  0.0000
    1GR    C251  251   1.914   1.596   1.900  0.0000  0.0000  0.0000
    1GR    C252  252   2.056   1.596   1.900  0.0000  0.0000  0.0000
    1GR    C253  253   1.702   1.719   1.900  0.0000  0.0000  0.0000
    1GR    C254  254   1.843   1.719   1.900  0.0000  0.0000  0.0000
    1GR    C255  255   1.914   1.842   1.900  0.0000  0.0000  0.0000
    1GR    C256  256   2.056   1.842   1.900  0.0000  0.0000  0.0000
    1GR    C257  257   1.702   1.965   1.900  0.0000  0.0000  0.0000
    1GR    C258  258   1.843   1.965   1.900  0.0000  0.0000  0.0000
    1GR    C259  259   1.914   2.088   1.900  0.0000  0.0000  0.0000
    1GR    C260  260   2.056   2.088   1.900  0.0000  0.0000  0.0000
    1GR    C261  261   1.702   2.210   1.900  0.0000  0.0000  0.0000
    1GR    C262  262   1.843   2.210   1.900  0.0000  0.0000  0.0000
    1GR    C263  263   1.914   2.333   1.900  0.0000  0.0000  0.0000
    1GR    C264  264   2.056   2.333   1.900  0.0000  0.0000  0.0000
    1GR    C265  265   1.702   2.456   1.900  0.0000  0.0000  0.0000
    1GR    C266  266   1.843   2.456   1.900  0.0000  0.0000  0.0000
    1GR    C267  267   1.914   2.579   1.900  0.0000  0.0000  0.0000
    1GR    C268  268   2.056   2.579   1.900  0.0000  0.0000  0.0000
    1GR    C269  269   1.702   2.702   1.900  0.0000  0.0000  0.0000
    1GR    C270  270   1.843   2.702   1.900  0.0000  0.0000  0.0000
    1GR    C271  271   1.914   2.824   1.900  0.0000  0.0000  0.0000
    1GR    C272  272   2.056   2.824   1.900  0.0000  0.0000  0.0000
    1GR    C273  273   1.702   2.947   1.900  0.0000  0.0000  0.0000
    1GR    C274  274   1.843   2.947   1.900  0.0000  0.0000  0.0000
    1GR    C275  275   1.914   3.070   1.900  0.0000  0.0000  0.0000
    1GR    C276  276   2.056   3.070   1.900  0.0000  0.0000  0.0000
    1GR    C277  277   1.702   3.193   1.900  0.0000  0.0000  0.0000
    1GR    C278  278   1.843   3.193   1.900  0.0000  0.0000  0.0000
    1GR    C279  279   1.914   3.316   1.900  0.0000  0.0000  0.0000
    1GR    C280  280   2.056   3.316   1.900  0.0000  0.0000  0.0000
    1GR    C281  281   2.127   0.000   1.900  0.0000  0.0000  0.0000
    1GR    C282  282   2.269   0.000   1.900  0.0000  0.0000  0.0000
    1GR    C283  283   2.340   0.123   1.900  0.0000  0.0000  0.0000
    1GR    C284  284   2.481   0.123   1.900  0.0000  0.0000  0.0000
    1GR    C285  285   2.127   0.246   1.900  0.0000  0.0000  0.0000
    1GR    C286  286   2.269   0.246   1.900  0.0000  0.0000  0.0000
    1GR    C287  287   2.340   0.368   1.900  0.0000  0.0000  0.0000
    1GR    C288  288   2.481   0.368   1.900  0.0000  0.0000  0.0000
    1GR    C289  289   2.127   0.491   1.900  0.0000  0.0000  0.0000
    1GR    C290  290   2.269   0.491   1.900  0.0000  0.0000  0.0000
    1GR    C291  291   2.340   0.614   1.900  0.0000  0.0000  0.0000
    1GR    C292  292   2.481   0.614   1.900  0.0000  0.0000  0.0000
    1GR    C293  293   2.127   0.737   1.900  0.0000  0.0000  0.0000
    1GR    C294  294   2.269   0.737   1.900  0.0000  0.0000  0.0000
    1GR    C295  295   2.340   0.860   1.900  0.0000  0.0000  0.0000
    1GR    C296  296   2.481   0.860   1.900  0.0000  0.0000  0.0000
    1GR    C297  297   2.127   0.982   1.900  0.0000  0.0000  0.0000
    1GR    C298  298   2.269   0.982   1.900  0.0000  0.0000  0.0000
    1GR    C299  299   2.340   1.105   1.900  0.0000  0.0000  0.0000
    1GR    C300  300   2.481   1.105   1.900  0.0000  0.0000  0.0000
    1GR    C301  301   2.127   1.228   1.900  0.0000  0.0000  0.0000
    1GR    C302  302   2.269   1.228   1.900  0.0000  0.0000  0.0000
    1GR    C303  303   2.340   1.351   1.900  0.0000  0.0000  0.0000
    1GR    C304  304   2.481   1.351   1.900  0.0000  0.0000  0.0000
    1GR    C305  305   2.127   1.474   1.900  0.0000  0.0000  0.0000
    1GR    C306  306   2.269   1.474   1.900  0.0000  0.0000  0.0000
    1GR    C307  307   2.340   1.596   1.900  0.0000  0.0000  0.0000
    1GR    C308  308   2.481   1.596   1.900  0.0000  0.0000  0.0000
    1GR    C309  309   2.127   1.719   1.900  0.0000  0.0000  0.0000
    1GR    C310  310   2.269   1.719   1.900  0.0000  0.0000  0.0000
    1GR    C311  311   2.340   1.842   1.900  0.0000  0.0000  0.0000
    1GR    C312  312   2.481   1.842   1.900  0.0000  0.0000  0.0000
    1GR    C313  313   2.127   1.965   1.900  0.0000  0.0000  0.0000
    1GR    C314  314   2.269   1.965   1.900  0.0000  0.0000  0.0000
    1GR    C315  315   2.340   2.088   1.900  0.0000  0.0000  0.0000
    1GR    C316  316   2.481   2.088   1.900  0.0000  0.0000  0.0000
    1GR    C317  317   2.127   2.210   1.900  0.0000  0.0000  0.0000
    1GR    C318  318   2.269   2.210   1.900  0.0000  0.0000  0.0000
    1GR    C319  319   2.340   2.333   1.900  0.0000  0.0000  0.0000
    1GR    C320  320   2.481   2.333   1.900  0.0000  0.0000  0.0000
    1GR    C321  321   2.127   2.456   1.900  0.0000  0.0000  0.0000
    1GR    C322  322   2.269   2.456   1.900  0.0000  0.0000  0.0000
    1GR    C323  323   2.340   2.579   1.900  0.0000  0.0000  0.0000
    1GR    C324  324   2.481   2.579   1.900  0.0000  0.0000  0.0000
    1GR    C325  325   2.127   2.702   1.900  0.0000  0.0000  0.0000
    1GR    C326  326   2.269   2.702   1.900  0.0000  0.0000  0.0000
    1GR    C327  327   2.340   2.824   1.900  0.0000  0.0000  0.0000
    1GR    C328  328   2.481   2.824   1.900  0.0000  0.0000  0.0000
    1GR    C329  329   2.127   2.947   1.900  0.0000  0.0000  0.0000
    1GR    C330  330   2.269   2.947   1.900  0.0000  0.0000  0.0000
    1GR    C331  331   2.340   3.070   1.900  0.0000  0.0000  0.0000
    1GR    C332  332   2.481   3.070   1.900  0.0000  0.0000  0.0000
    1GR    C333  333   2.127   3.193   1.900  0.0000  0.0000  0.0000
    1GR    C334  334   2.269   3.193   1.900  0.0000  0.0000  0.0000
    1GR    C335  335   2.340   3.316   1.900  0.0000  0.0000  0.0000
    1GR    C336  336   2.481   3.316   1.900  0.0000  0.0000  0.0000
    1GR    C337  337   2.552   0.000   1.900  0.0000  0.0000  0.0000
    1GR    C338  338   2.694   0.000   1.900  0.0000  0.0000  0.0000
    1GR    C339  339   2.765   0.123   1.900  0.0000  0.0000  0.0000
    1GR    C340  340   2.907   0.123   1.900  0.0000  0.0000  0.0000
    1GR    C341  341   2.552   0.246   1.900  0.0000  0.0000  0.0000
    1GR    C342  342   2.694   0.246   1.900  0.0000  0.0000  0.0000
    1GR    C343  343   2.765   0.368   1.900  0.0000  0.0000  0.0000
    1GR    C344  344   2.907   0.368   1.900  0.0000  0.0000  0.0000
    1GR    C345  345   2.552   0.491   1.900  0.0000  0.0000  0.0000
    1GR    C346  346   2.694   0.491   1.900  0.0000  0.0000  0.0000
    1GR    C347  347   2.765   0.614   1.900  0.0000  0.0000  0.0000
    1GR    C348  348   2.907   0.614   1.900  0.0000  0.0000  0.0000
    1GR    C349  349   2.552   0.737   1.900  0.0000  0.0000  0.0000
    1GR    C350  350   2.694   0.737   1.900  0.0000  0.0000  0.0000
    1GR    C351  351   2.765   0.860   1.900  0.0000  0.0000  0.0000
    1GR    C352  352   2.907   0.860   1.900  0.0000  0.0000  0.0000
    1GR    C353  353   2.552   0.982   1.900  0.0000  0.0000  0.0000
    1GR    C354  354   2.694   0.982   1.900  0.0000  0.0000  0.0000
    1GR    C355  355   2.765   1.105   1.900  0.0000  0.0000  0.0000
    1GR    C356  356   2.907   1.105   1.900  0.0000  0.0000  0.0000
    1GR    C357  357   2.552   1.228   1.900  0.0000  0.0000  0.0000
    1GR    C358  358   2.694   1.228   1.900  0.0000  0.0000  0.0000
    1GR    C359  359   2.765   1.351   1.900  0.0000  0.0000  0.0000
    1GR    C360  360   2.907   1.351   1.900  0.0000  0.0000  0.0000
    1GR    C361  361   2.552   1.474   1.900  0.0000  0.0000  0.0000
    1GR    C362  362   2.694   1.474   1.900  0.0000  0.0000  0.0000
    1GR    C363  363   2.765   1.596   1.900  0.0000  0.0000  0.0000
    1GR    C364  364   2.907   1.596   1.900  0.0000  0.0000  0.0000
    1GR    C365  365   2.552   1.719   1.900  0.0000  0.0000  0.0000
    1GR    C366  366   2.694   1.719   1.900  0.0000  0.0000  0.0000
    1GR    C367  367   2.765   1.842   1.900  0.0000  0.0000  0.0000
    1GR    C368  368   2.907   1.842   1.900  0.0000  0.0000  0.0000
    1GR    C369  369   2.552   1.965   1.900  0.0000  0.0000  0.0000
    1GR    C370  370   2.694   1.965   1.900  0.0000  0.0000  0.0000
    1GR    C371  371   2.765   2.088   1.900  0.0000  0.0000  0.0000
    1GR    C372  372   2.907   2.088   1.900  0.0000  0.0000  0.0000
    1GR    C373  373   2.552   2.210   1.900  0.0000  0.0000  0.0000
    1GR    C374  374   2.694   2.210   1.900  0.0000  0.0000  0.0000
    1GR    C375  375   2.765   2.333   1.900  0.0000  0.0000  0.0000
    1GR    C376  376   2.907   2.333   1.900  0.0000  0.0000  0.0000
    1GR    C377  377   2.552   2.456   1.900  0.0000  0.0000  0.0000
    1GR    C378  378   2.694   2.456   1.900  0.0000  0.0000  0.0000
    1GR    C379  379   2.765   2.579   1.900  0.0000  0.0000  0.0000
    1GR    C380  380   2.907   2.579   1.900  0.0000  0.0000  0.0000
    1GR    C381  381   2.552   2.702   1.900  0.0000  0.0000  0.0000
    1GR    C382  382   2.694   2.702   1.900  0.0000  0.0000  0.0000
    1GR    C383  383   2.765   2.824   1.900  0.0000  0.0000  0.0000
    1GR    C384  384   2.907   2.824   1.900  0.0000  0.0000  0.0000
    1GR    C385  385   2.552   2.947   1.900  0.0000  0.0000  0.0000
    1GR    C386  386   2.694   2.947   1.900  0.0000  0.0000  0.0000
    1GR    C387  387   2.765   3.070   1.900  0.0000  0.0000  0.0000
    1GR    C388  388   2.907   3.070   1.900  0.0000  0.0000  0.0000
    1GR    C389  389   2.552   3.193   1.900  0.0000  0.0000  0.0000
    1GR    C390  390   2.694   3.193   1.900  0.0000  0.0000  0.0000
    1GR    C391  391   2.765   3.316   1.900  0.0000  0.0000  0.0000
    1GR    C392  392   2.907   3.316   1.900  0.0000  0.0000  0.0000
    1GR    C393  393   2.978   0.000   1.900  0.0000  0.0000  0.0000
    1GR    C394  394   3.120   0.000   1.900  0.0000  0.0000  0.0000
    1GR    C395  395   3.191   0.123   1.900  0.0000  0.0000  0.0000
    1GR    C396  396   3.332   0.123   1.900  0.0000  0.0000  0.0000
    1GR    C397  397   2.978   0.246   1.900  0.0000  0.0000  0.0000
    1GR    C398  398   3.120   0.246   1.900  0.0000  0.0000  0.0000
    1GR    C399  399   3.191   0.368   1.900  0.0000  0.0000  0.0000
    1GR    C400  400   3.332   0.368   1.900  0.0000  0.0000  0.0000
    1GR    C401  401   2.978   0.491   1.900  0.0000  0.0000  0.0000
    1GR    C402  402   3.120   0.491   1.900  0.0000  0.0000  0.0000
    1GR    C403  403   3.191   0.614   1.900  0.0000  0.0000  0.0000
    1GR    C404  404   3.332   0.614   1.900  0.0000  0.0000  0.0000
    1GR    C405  405   2.978   0.737   1.900  0.0000  0.0000  0.0000
    1GR    C406  406   3.120   0.737   1.900  0.0000  0.0000  0.0000
    1GR    C407  407   3.191   0.860   1.900  0.0000  0.0000  0.0000
    1GR    C408  408   3.332   0.860   1.900  0.0000  0.0000  0.0000
    1GR    C409  409   2.978   0.982   1.900  0.0000  0.0000  0.0000
    1GR    C410  410   3.120   0.982   1.900  0.0000  0.0000  0.0000
    1GR    C411  411   3.191   1.105   1.900  0.0000  0.0000  0.0000
    1GR    C412  412   3.332   1.105   1.900  0.0000  0.0000  0.0000
    1GR    C413  413   2.978   1.228   1.900  0.0000  0.0000  0.0000
    1GR    C414  414   3.120   1.228   1.900  0.0000  0.0000  0.0000
    1GR    C415  415   3.191   1.351   1.900  0.0000  0.0000  0.0000
    1GR    C416  416   3.332   1.351   1.900  0.0000  0.0000  0.0000
    1GR    C417  417   2.978   1.474   1.900  0.0000  0.0000  0.0000
    1GR    C418  418   3.120   1.474   1.900  0.0000  0.0000  0.0000
    1GR    C419  419   3.191   1.596   1.900  0.0000  0.0000  0.0000
    1GR    C420  420   3.332   1.596   1.900  0.0000  0.0000  0.0000
    1GR    C421  421   2.978   1.719   1.900  0.0000  0.0000  0.0000
    1GR    C422  422   3.120   1.719   1.900  0.0000  0.0000  0.0000
    1GR    C423  423   3.191   1.842   1.900  0.0000  0.0000  0.0000
    1GR    C424  424   3.332   1.842   1.900  0.0000  0.0000  0.0000
    1GR    C425  425   2.978   1.965   1.900  0.0000  0.0000  0.0000
    1GR    C426  426   3.120   1.965   1.900  0.0000  0.0000  0.0000
    1GR    C427  427   3.191   2.088   1.900  0.0000  0.0000  0.0000
    1GR    C428  428   3.332   2.088   1.900  0.0000  0.0000  0.0000
    1GR    C429  429   2.978   2.210   1.900  0.0000  0.0000  0.0000
    1GR    C430  430   3.120   2.210   1.900  0.0000  0.0000  0.0000
    1GR    C431  431   3.191   2.333   1.900  0.0000  0.0000  0.0000
    1GR    C432  432   3.332   2.333   1.900  0.0000  0.0000  0.0000
    1GR    C433  433   2.978   2.456   1.900  0.0000  0.0000  0.0000
    1GR    C434  434   3.120   2.456   1.900  0.0000  0.0000  0.0000
    1GR    C435  435   3.191   2.579   1.900  0.0000  0.0000  0.0000
    1GR    C436  436   3.332   2.579   1.900  0.0000  0.0000  0.0000
    1GR    C437  437   2.978   2.702   1.900  0.0000  0.0000  0.0000
    1GR    C438  438   3.120   2.702   1.900  0.0000  0.0000  0.0000
    1GR    C439  439   3.191   2.824   1.900  0.0000  0.0000  0.0000
    1GR    C440  440   3.332   2.824   1.900  0.0000  0.0000  0.0000
    1GR    C441  441   2.978   2.947   1.900  0.0000  0.0000  0.0000
    1GR    C442  442   3.120   2.947   1.900  0.0000  0.0000  0.0000
    1GR    C443  443   3.191   3.070   1.900  0.0000  0.0000  0.0000
    1GR    C444  444   3.332   3.070   1.900  0.0000  0.0000  0.0000
    1GR    C445  445   2.978   3.193   1.900  0.0000  0.0000  0.0000
    1GR    C446  446   3.120   3.193   1.900  0.0000  0.0000  0.0000
    1GR    C447  447   3.191   3.316   1.900  0.0000  0.0000  0.0000
    1GR    C448  448   3.332   3.316   1.900  0.0000  0.0000  0.0000
    2PMMA   CX1  449   1.963   1.500   2.247 -0.3311  0.1081 -0.2058
    2PMMA   CA2  450   1.913   1.393   2.350  1.3090 -0.0634 -0.1108
    2PMMA   CX3  451   1.758   1.393   2.334 -0.1975  0.4780  0.1424
    2PMMA    C4  452   1.976   1.261   2.302 -0.1332  0.0062 -0.3337
    2PMMA    O5  453   2.094   1.252   2.286 -0.3865 -0.5407  0.8212
    2PMMA   OS6  454   1.897   1.161   2.273 -0.0483 -0.1296  0.1115
    2PMMA   CE7  455   1.958   1.035   2.235 -0.0610 -0.2593  0.2709
    2PMMA   CX8  456   1.968   1.441   2.488 -0.2787  0.2945  0.1012
    2PMMA   CA9  457   1.912   1.395   2.625 -0.1686 -0.6930 -0.0468
    2PMMA  CX10  458   1.900   1.236   2.615  0.5747 -0.1026  0.5174
    2PMMA   C11  459   1.774   1.463   2.651 -0.0098 -0.4393 -0.2593
    2PMMA   O12  460   1.661   1.411   2.638  0.7000 -0.0821  0.0116
    2PMMA  OS13  461   1.788   1.597   2.676 -0.3528 -0.4926 -0.5780
    2PMMA  CE14  462   1.675   1.684   2.675  1.1040 -0.2560  0.3283
    2PMMA  CX15  463   2.022   1.424   2.740 -0.8787  0.4239  0.0353
    2PMMA  CA16  464   2.003   1.382   2.892 -0.4811 -0.5322  0.2872
    2PMMA  CX17  465   1.882   1.448   2.956  0.3229 -0.9100 -0.2509
    2PMMA   C18  466   2.001   1.228   2.901  0.8114  0.4838 -0.2332
    2PMMA   O19  467   1.901   1.160   2.926  1.4011 -0.6336 -0.4583
    2PMMA  OS20  468   2.107   1.166   2.841  0.4516 -0.1130 -0.6071
    2PMMA  CE21  469   2.117   1.023   2.859 -0.3867 -0.3601  0.3438
    2PMMA  CX22  470   2.142   1.432   2.962  0.0053 -0.1643 -0.0465
    2PMMA  CA23  471   2.155   1.415   3.120 -0.3065  0.3504 -0.0731
    2PMMA  CX24  472   2.141   1.268   3.163 -0.0949  0.0366 -0.4491
    2PMMA   C25  473   2.060   1.501   3.203  0.1986  0.2448  0.0686
    2PMMA   O26  474   1.992   1.457   3.294  0.6934 -0.1029  0.4825
    2PMMA  OS27  475   2.043   1.625   3.161  0.0444  0.0255  0.4411
    2PMMA  CE28  476   1.946   1.704   3.223 -0.6653  0.1558 -0.1087
    2PMMA  CX29  477   2.299   1.462   3.141  0.4461  0.6708  0.0807
    2PMMA  HC30  478   2.067   1.530   2.265 -1.0409  2.6448 -0.0815
    2PMMA  HC31  479   1.968   1.465   2.143 -1.1418 -0.1991 -0.1471
    2PMMA  HC32  480   1.910   1.596   2.251  1.5462  1.1662 -0.0389
    2PMMA  HC33  481   1.733   1.391   2.227  1.0395  0.3878 -0.1584
    2PMMA  HC34  482   1.709   1.486   2.364 -0.5785  0.4898 -0.5135
    2PMMA  HC35  483   1.706   1.306   2.374  0.0293  0.6300  0.7641
    2PMMA  H136  484   1.884   0.975   2.181 -2.3333  4.3329 -1.9958
    2PMMA  H137  485   2.006   0.984   2.319  2.4606 -1.2989 -1.7043
    2PMMA  H138  486   2.042   1.050   2.165 -0.9119  0.4941 -0.6026
    2PMMA  HC39  487   2.074   1.415   2.494 -0.5247 -1.0834 -1.2472
    2PMMA  HC40  488   1.975   1.550   2.488 -1.6857  0.4081 -1.1679
    2PMMA  HC41  489   1.847   1.193   2.530  1.0887 -0.8138  0.5494
    2PMMA  HC42  490   1.998   1.189   2.627 -0.9465 -3.1171  1.6373
    2PMMA  HC43  491   1.842   1.192   2.697  1.4110 -0.3117  1.0049
    2PMMA  H144  492   1.695   1.772   2.736 -2.4544 -0.4768  1.9267
    2PMMA  H145  493   1.591   1.636   2.725 -0.3445  0.5881 -1.2296
    2PMMA  H146  494   1.637   1.717   2.578  3.0578  0.8120 -0.0876
    2PMMA  HC47  495   2.119   1.385   2.708 -1.7796 -1.9690  0.1277
    2PMMA  HC48  496   2.039   1.532   2.742  0.4169  0.4470 -4.8626
    2PMMA  HC49  497   1.892   1.556   2.943  1.2458 -1.1949 -2.2448
    2PMMA  HC50  498   1.865   1.418   3.059  0.9127 -0.7174 -0.0972
    2PMMA  HC51  499   1.785   1.429   2.910 -0.7751 -1.4836  2.2338
    2PMMA  H152  500   2.217   0.992   2.828  0.5603  2.2347  0.7613
    2PMMA  H153  501   2.042   0.980   2.792  1.0246 -1.8265 -0.3280
    2PMMA  H154  502   2.092   1.001   2.963  0.5557 -0.2639  0.5866
    2PMMA  HC55  503   2.230   1.405   2.904 -0.7158  1.4610 -1.9533
    2PMMA  HC56  504   2.148   1.541   2.955  1.2553 -0.1359  1.3218
    2PMMA  HC57  505   2.192   1.245   3.257 -2.3385 -1.6061  0.4163
    2PMMA  HC58  506   2.037   1.238   3.178  0.3213 -1.6154 -0.8040
    2PMMA  HC59  507   2.189   1.200   3.092  0.3457  0.6604 -0.7555
    2PMMA  H160  508   1.857   1.665   3.173  0.8354 -1.8357 -1.2968
    2PMMA  H161  509   1.962   1.805   3.184  0.0155 -0.5278 -1.6476
    2PMMA  H162  510   1.941   1.704   3.332  0.2491  2.8973 -0.0132
    2PMMA  HC63  511   2.371   1.399   3.088 -1.3884 -2.1781  0.8471
    2PMMA  HC64  512   2.315   1.562   3.099 -1.8548  1.1722  0.3599
    2PMMA  HC65  513   2.330   1.464   3.246 -0.1713  1.4103  0.2508
    3DMF     C1  514   2.068   1.241   0.042  0.1178  0.2786  0.0607
    3DMF     N1  515   1.980   1.311  -0.051 -0.3444 -0.9041  0.5187
    3DMF     C2  516   1.854   1.370   0.005 -0.5918 -0.2100 -0.2534
    3DMF     C3  517   2.015   1.338  -0.183 -0.7025 -0.6294 -0.1240
    3DMF     O1  518   2.119   1.285  -0.222  0.2644 -0.6925  0.5440
    3DMF     H1  519   2.134   1.174  -0.014 -3.0260 -2.3936 -0.5708
    3DMF     H2  520   2.010   1.169   0.100  0.3859  0.4285  0.5238
    3DMF     H3  521   2.121   1.317   0.102  1.5874 -1.9658  1.7200
    3DMF     H4  522   1.870   1.463   0.061 -0.0738  0.1939 -1.0694
    3DMF     H5  523   1.804   1.295   0.067 -1.1218  0.2215 -0.1532
    3DMF     H6  524   1.784   1.393  -0.076 -0.2203 -1.1808 -0.8504
    3DMF     H7  525   1.955   1.409  -0.242 -0.3671 -2.3503 -2.6009
    4DMF     C1  526   2.913   2.526   2.677 -0.4871 -0.0597  0.6304
    4DMF     N1  527   2.824   2.517   2.794  0.0727  0.1421 -0.7947
    4DMF     C2  528   2.822   2.385   2.862 -0.3161 -0.5916  0.2050
    4DMF     C3  529   2.741   2.618   2.842 -0.0430  0.0026 -0.0980
    4DMF     O1  530   2.744   2.721   2.783  0.4359 -0.0262 -0.6381
    4DMF     H1  531   2.862   2.532   2.580  2.2430 -1.4820 -0.9548
    4DMF     H2  532   2.988   2.446   2.671  0.1135  0.5638 -0.2950
    4DMF     H3  533   2.959   2.625   2.688 -1.9222  0.6791  0.0618
    4DMF     H4  534   2.732   2.377   2.924  0.6770  0.4230  1.8177
    4DMF     H5  535   2.914   2.363   2.917 -1.6375 -1.4798  2.1448
    4DMF     H6  536   2.811   2.303   2.789 -2.9757 -1.6291  1.6929
    4DMF     H7  537   2.690   2.589   2.936 -0.2891  0.2404 -0.1597
    5DMF     C1  538   3.210   2.693   3.149 -0.1731 -0.5801 -0.5467
    5DMF     N1  539   3.186   2.757   3.015  0.7451  0.0183 -0.4252
    5DMF     C2  540   3.105   2.681   2.909 -0.0141  0.2722 -0.3020
    5DMF     C3  541   3.253   2.871   2.973  0.5165 -0.1717  0.2334
    5DMF     O1  542   3.324   2.934   3.048 -0.2536 -0.0016  0.1204
    5DMF     H1  543   3.155   2.753   3.223 -2.0537 -3.6604  0.6137
    5DMF     H2  544   3.316   2.686   3.175  0.6341  1.3632 -3.0540
    5DMF     H3  545   3.170   2.591   3.146 -3.4734  0.6333 -0.3427
    5DMF     H4  546   3.129   2.576   2.929  0.2160  0.6157  1.2983
    5DMF     H5  547   3.117   2.710   2.804  1.4065  1.2491  0.1164
    5DMF     H6  548   2.997   2.688   2.930 -0.2117  2.3841 -1.8427
    5DMF     H7  549   3.239   2.894   2.866  0.9855  0.4120  0.3011
    6DMF     C1  550   2.393   0.708   3.792  0.2353  0.0181  0.2992
    6DMF     N1  551   2.398   0.652   3.663 -0.1956 -0.4320  0.0925
    6DMF     C2  552   2.442   0.735   3.544  0.5014 -0.3253  0.5737
    6DMF     C3  553   2.383   0.512   3.649 -0.1857  0.3229  0.2452
    6DMF     O1  554   2.359   0.433   3.745  0.0486  0.0390 -0.1585
    6DMF     H1  555   2.481   0.773   3.806  1.8926 -1.4207 -3.0082
    6DMF     H2  556   2.399   0.638   3.877 -2.0337  1.5704  1.7898
    6DMF     H3  557   2.299   0.759   3.817 -1.1539 -1.8227 -1.0848
    6DMF     H4  558   2.367   0.744   3.464 -1.2997  0.1846  2.2760
    6DMF     H5  559   2.531   0.683   3.506 -0.4948 -0.7105 -1.2896
    6DMF     H6  560   2.471   0.837   3.574 -0.0569 -0.3073  1.0650
    6DMF     H7  561   2.407   0.482   3.546  2.9194  0.8146  0.7753
    7DMF     C1  562   1.183   3.111   0.042  0.1165  0.1109  0.0593
    7DMF     N1  563   1.212   3.140  -0.101 -0.3911 -0.0633 -0.0534
    7DMF     C2  564   1.315   3.252  -0.131  0.0076 -0.5992 -0.8075
    7DMF     C3  565   1.139   3.092  -0.207 -1.1347 -0.2896  0.1958
    7DMF     O1  566   1.058   3.010  -0.180 -0.2206  0.0210 -0.1358
    7DMF     H1  567   1.117   3.192   0.074  0.1175  0.5862 -1.1103
    7DMF     H2  568   1.276   3.118   0.100 -0.3716  1.3833  0.6952
    7DMF     H3  569   1.127   3.017   0.050 -1.5185  0.9187 -1.4195
    7DMF     H4  570   1.365   3.234  -0.226  1.2633  0.0782 -0.2796
    7DMF     H5  571   1.403   3.253  -0.066  0.0730  0.3480 -0.9137
    7DMF     H6  572   1.263   3.348  -0.134  0.3485 -0.3149  1.4473
    7DMF     H7  573   1.158   3.140  -0.305  3.2847 -0.7535  0.7501
    8DMF     C1  574   1.535   2.274   3.531  0.1942 -0.2297  0.0651
    8DMF     N1  575   1.621   2.319   3.637 -0.2570 -0.0991  0.0321
    8DMF     C2  576   1.728   2.415   3.605  0.0148  0.5822 -0.4508
    8DMF     C3  577   1.587   2.298   3.773 -1.0029  0.4231 -0.3510
    8DMF     O1  578   1.482   2.245   3.815 -0.4316  0.3154  0.0249
    8DMF     H1  579   1.580   2.185   3.485 -3.6772 -1.5380 -1.3149
    8DMF     H2  580   1.527   2.353   3.455  0.2400 -1.1358 -0.8880
    8DMF     H3  581   1.441   2.234   3.570 -0.6263  0.4201 -1.1971
    8DMF     H4  582   1.717   2.505   3.667  1.0921  0.1781  0.3349
    8DMF     H5  583   1.717   2.444   3.499  0.9868 -2.3540 -1.3917
    8DMF     H6  584   1.821   2.363   3.629 -0.4391  1.3346  3.0838
    8DMF     H7  585   1.646   2.355   3.847  0.8788 -1.2069 -0.5640
    9DMF     C1  586   2.504   3.437   2.603  0.4582 -0.2964  0.4042
    9DMF     N1  587   2.513   3.461   2.750 -0.4961  0.5598  0.0585
    9DMF     C2  588   2.631   3.524   2.798  0.0189  0.6344 -0.2872
    9DMF     C3  589   2.425   3.399   2.843 -0.0669 -0.3948 -0.7016
    9DMF     O1  590   2.325   3.349   2.807 -0.0720 -0.2664  0.1610
    9DMF     H1  591   2.426   3.364   2.575  2.1404 -1.3703 -1.7116
    9DMF     H2  592   2.599   3.401   2.562  0.3520 -0.5070  0.3363
    9DMF     H3  593   2.487   3.529   2.546 -1.0939 -1.4125 -1.0205
    9DMF     H4  594   2.697   3.448   2.841  1.2527  0.7920 -1.8353
    9DMF     H5  595   2.607   3.579   2.890 -0.9314  1.2220 -0.8722
    9DMF     H6  596   2.689   3.589   2.731 -1.0021  0.7850 -1.0339
    9DMF     H7  597   2.454   3.401   2.950 -0.2222 -1.8634 -0.6198
   10DMF     C1  598   1.882   0.279   3.177  0.0871  1.6031 -0.2433
   10DMF     N1  599   1.780   0.299   3.077 -0.0817  0.6049  0.2364
   10DMF     C2  600   1.782   0.429   3.004  0.2310  1.1162  0.0659
   10DMF     C3  601   1.670   0.211   3.068 -0.3565  0.3667  1.0783
   10DMF     O1  602   1.653   0.118   3.144 -0.3172  0.3265  0.2265
   10DMF     H1  603   1.832   0.278   3.274 -0.7181  3.4852 -0.6189
   10DMF     H2  604   1.957   0.359   3.172  1.8452 -0.1176 -3.7968
   10DMF     H3  605   1.931   0.184   3.153 -3.4876 -0.0181 -1.5218
   10DMF     H4  606   1.697   0.421   2.936 -0.7316 -0.4303  1.4177
   10DMF     H5  607   1.882   0.438   2.960 -0.8867  2.6643 -2.2829
   10DMF     H6  608   1.763   0.517   3.067  1.4170  0.8816  0.7736
   10DMF     H7  609   1.589   0.240   2.998 -0.9503  0.5401  1.8371
   11DMF     C1  610   3.233   1.943   0.260  0.1322  0.2744  0.5969
   11DMF     N1  611   3.154   2.065   0.232  0.7277 -0.3396  0.4259
   11DMF     C2  612   3.049   2.108   0.331  0.0610 -0.3370  0.0903
   11DMF     C3  613   3.195   2.151   0.126  0.2229 -0.2175 -0.4075
   11DMF     O1  614   3.303   2.137   0.070 -0.3825 -0.5229  0.5863
   11DMF     H1  615   3.325   1.929   0.202 -0.5802  2.3785 -1.0918
   11DMF     H2  616   3.165   1.858   0.243  0.8301 -0.5412  1.7565
   11DMF     H3  617   3.261   1.946   0.366 -0.2293  3.5223  0.6392
   11DMF     H4  618   3.089   2.194   0.386  1.1864 -0.0036 -1.2413
   11DMF     H5  619   3.008   2.031   0.398  1.4309  0.0792  1.4304
   11DMF     H6  620   2.960   2.132   0.272  0.7015 -0.2774 -0.8483
   11DMF     H7  621   3.126   2.235   0.107  2.2967  1.8590  0.9543
   12DMF     C1  622   1.487   1.155   3.364  0.3815 -0.3060  0.3401
   12DMF     N1  623   1.620   1.177   3.307  0.3253  0.6003 -0.2231
   12DMF     C2  624   1.626   1.180   3.162  0.8457 -0.0343 -0.1811
   12DMF     C3  625   1.733   1.221   3.384  0.2246  0.9663  0.1293
   12DMF     O1  626   1.729   1.249   3.502  0.2877  0.3056  0.1373
   12DMF     H1  627   1.486   1.188   3.468 -0.7193 -3.7879  1.5335
   12DMF     H2  628   1.456   1.049   3.362 -0.0515 -0.1707 -0.9003
   12DMF     H3  629   1.412   1.214   3.309  0.0910 -0.4148  0.6147
   12DMF     H4  630   1.596   1.083   3.119  1.2484  0.9606 -2.8218
   12DMF     H5  631   1.720   1.214   3.117  0.5115  0.8773 -0.2001
   12DMF     H6  632   1.555   1.255   3.125 -0.7976 -0.8918  1.1255
   12DMF     H7  633   1.826   1.239   3.326  1.4671 -2.5201  0.9577
   13DMF     C1  634   2.471   2.993   0.738 -0.6925 -0.4198 -0.6846
   13DMF     N1  635   2.535   3.106   0.660  0.5412 -0.2842 -0.5745
   13DMF     C2  636   2.619   3.207   0.722 -0.2796 -0.2403  0.1840
   13DMF     C3  637   2.509   3.120   0.523 -1.0427 -0.0259  0.3113
   13DMF     O1  638   2.418   3.064   0.468 -0.2850  0.4023 -0.4100
   13DMF     H1  639   2.514   2.984   0.839 -0.3505 -0.6082 -0.8438
   13DMF     H2  640   2.491   2.897   0.688 -2.2862  0.0447 -2.2519
   13DMF     H3  641   2.363   3.003   0.746 -0.5884 -1.2229  2.3756
   13DMF     H4  642   2.723   3.185   0.697 -0.8001 -0.8461 -1.5640
   13DMF     H5  643   2.613   3.194   0.831  1.9056 -1.5158  0.1845
   13DMF     H6  644   2.594   3.310   0.691 -2.2597 -1.4942 -2.6365
   13DMF     H7  645   2.573   3.201   0.484 -0.6962  0.8336  2.5794
   14DMF     C1  646   2.272   3.391   0.726  0.9584 -0.2099 -0.0973
   14DMF     N1  647   2.232   3.297   0.619 -0.1047 -0.1356  0.5450
   14DMF     C2  648   2.237   3.341   0.484  0.1377  0.2337  0.6416
   14DMF     C3  649   2.152   3.180   0.643  0.2280  0.1131 -0.0035
   14DMF     O1  650   2.132   3.144   0.758 -0.0012  0.3421  0.4149
   14DMF     H1  651   2.370   3.369   0.769  0.7840 -1.7681 -0.4617
   14DMF     H2  652   2.191   3.386   0.799  0.3413  4.4616 -0.3053
   14DMF     H3  653   2.288   3.493   0.689  1.3282 -0.3820 -0.4198
   14DMF     H4  654   2.332   3.394   0.468 -0.0028  0.1122 -0.6100
   14DMF     H5  655   2.156   3.408   0.453  0.3541 -1.0972 -3.1256
   14DMF     H6  656   2.222   3.259   0.412  2.6696  0.9503 -0.7507
   14DMF     H7  657   2.116   3.127   0.553  0.3727 -0.9276  0.5443
   15DMF     C1  658   0.513   1.122   0.442 -0.0353  0.1137  0.3201
   15DMF     N1  659   0.369   1.101   0.403  0.2928 -0.4806  0.3288
   15DMF     C2  660   0.291   1.231   0.392 -0.3065  0.0231 -0.0967
   15DMF     C3  661   0.329   0.978   0.350 -0.1395 -0.0214  0.1157
   15DMF     O1  662   0.391   0.877   0.365 -0.1120  0.7091 -0.3440
   15DMF     H1  663   0.574   1.157   0.358  1.8914 -1.3738  1.0653
   15DMF     H2  664   0.543   1.024   0.481  1.7125 -0.0723 -1.4126
   15DMF     H3  665   0.522   1.201   0.518  0.9815 -0.7027  1.0633
   15DMF     H4  666   0.358   1.315   0.369 -0.2535  0.1827  0.6371
   15DMF     H5  667   0.241   1.252   0.487 -1.1167 -1.2048 -0.2363
   15DMF     H6  668   0.206   1.216   0.324 -0.2419 -0.8125  0.0063
   15DMF     H7  669   0.229   0.982   0.302 -0.7504  0.5802  1.4346
   16DMF     C1  670   3.288   3.420   1.518 -0.3963 -0.1374 -0.5863
   16DMF     N1  671   3.285   3.270   1.526 -0.3243 -0.4934 -0.0186
   16DMF     C2  672   3.158   3.203   1.494  0.3567 -0.2261  0.6816
   16DMF     C3  673   3.407   3.198   1.540  0.0565 -0.2861 -0.6369
   16DMF     O1  674   3.515   3.250   1.563  0.5455  0.2294  0.1195
   16DMF     H1  675   3.187   3.464   1.520 -1.0516 -1.6506  1.2733
   16DMF     H2  676   3.341   3.455   1.428  1.5682 -0.3942  0.4388
   16DMF     H3  677   3.338   3.456   1.609  1.3242 -2.3920 -0.6198
   16DMF     H4  678   3.120   3.247   1.401 -0.2573 -1.7802  0.1790
   16DMF     H5  679   3.087   3.232   1.573  0.9971  0.2902  1.0733
   16DMF     H6  680   3.169   3.094   1.487  1.9586  0.1207 -3.2769
   16DMF     H7  681   3.385   3.089   1.544 -0.2253 -0.1785  1.3103
   17DMF     C1  682   2.919   0.199   1.507  0.5238  0.5182 -0.1688
   17DMF     N1  683   2.838   0.323   1.541  0.2442  0.2273 -0.5106
   17DMF     C2  684   2.892   0.461   1.534 -0.5091 -0.3930  0.2191
   17DMF     C3  685   2.702   0.313   1.569 -0.0230 -0.0392 -0.0607
   17DMF     O1  686   2.645   0.207   1.581  0.0820 -0.6160  1.0801
   17DMF     H1  687   2.846   0.125   1.473 -0.8423  0.1459  3.3372
   17DMF     H2  688   2.962   0.169   1.603 -0.5624 -3.6962 -0.9102
   17DMF     H3  689   2.993   0.223   1.430  1.8200  1.1083  1.2338
   17DMF     H4  690   2.833   0.521   1.463 -0.1665 -1.0642 -0.6417
   17DMF     H5  691   2.997   0.468   1.500 -0.8065  0.2155 -0.6028
   17DMF     H6  692   2.902   0.502   1.636 -3.7457  1.5358 -0.1804
   17DMF     H7  693   2.642   0.406   1.566  0.2753  0.1749  0.4796
   18DMF     C1  694   0.546   0.370   0.439  0.1598  0.2998  0.2375
   18DMF     N1  695   0.491   0.493   0.363  0.2096 -0.5234  0.3496
   18DMF     C2  696   0.346   0.515   0.384 -0.2748  0.1242 -0.1696
   18DMF     C3  697   0.560   0.557   0.258 -0.5477  0.1428  0.0001
   18DMF     O1  698   0.679   0.536   0.235  0.3794 -0.2275  0.3195
   18DMF     H1  699   0.637   0.385   0.499 -0.0115 -0.2212  0.6248
   18DMF     H2  700   0.582   0.297   0.366  0.7567  1.6042 -0.8011
   18DMF     H3  701   0.459   0.332   0.493 -1.4858  0.5899 -2.1492
   18DMF     H4  702   0.334   0.611   0.436  3.1260  0.1432  0.6865
   18DMF     H5  703   0.311   0.440   0.456 -0.3929  0.4248  0.0902
   18DMF     H6  704   0.306   0.522   0.282  0.5202  1.3708 -0.4039
   18DMF     H7  705   0.495   0.630   0.207  0.5880 -0.1426 -1.8820
   19DMF     C1  706   1.977   2.855   1.503  0.1558 -0.1790  0.0279
   19DMF     N1  707   1.959   2.997   1.536  0.3065  0.7605 -0.3620
   19DMF     C2  708   1.825   3.052   1.511  0.0603 -0.5075  0.1779
   19DMF     C3  709   2.062   3.080   1.575  0.0291 -0.1672  0.3713
   19DMF     O1  710   2.180   3.043   1.580  0.6932  0.3858  0.3015
   19DMF     H1  711   2.085   2.834   1.501 -0.0470 -1.2971  0.5819
   19DMF     H2  712   1.945   2.831   1.402  0.8530  1.6039 -0.6412
   19DMF     H3  713   1.927   2.792   1.578  0.3982 -0.0140  0.3324
   19DMF     H4  714   1.760   2.980   1.460 -0.4029  1.0549 -1.4579
   19DMF     H5  715   1.827   3.145   1.453 -0.8908 -0.1721  0.6831
   19DMF     H6  716   1.785   3.069   1.612  1.3355 -2.9559  1.1501
   19DMF     H7  717   2.026   3.183   1.592  0.5948  0.0911  0.0099
   20DMF     C1  718   0.950   1.765   1.214  0.7511  0.1471  0.3840
   20DMF     N1  719   0.902   1.734   1.084  0.4043 -0.1185  0.4017
   20DMF     C2  720   0.764   1.763   1.049 -0.7196  0.5359  0.3272
   20DMF     C3  721   0.979   1.661   0.999 -0.4981 -0.1916  0.2617
   20DMF     O1  722   1.096   1.632   1.013  0.5947  0.1451  0.2637
   20DMF     H1  723   0.994   1.673   1.256 -1.1555  0.1612  2.4847
   20DMF     H2  724   0.864   1.797   1.274 -0.3891 -1.0602 -0.5760
   20DMF     H3  725   1.025   1.844   1.203  0.1381  0.4715 -1.7044
   20DMF     H4  726   0.722   1.823   1.131  2.0547  0.6488  1.7525
   20DMF     H5  727   0.701   1.674   1.032 -2.5193  1.4315  2.0973
   20DMF     H6  728   0.766   1.832   0.964  0.8457  3.2814  2.4800
   20DMF     H7  729   0.927   1.633   0.905 -0.0166 -2.5080  0.6817
   21DMF     C1  730   3.125   2.231   1.539  0.3015  0.6160 -0.6170
   21DMF     N1  731   2.997   2.304   1.563 -0.1063  0.2089  0.3448
   21DMF     C2  732   3.001   2.451   1.579 -0.5603 -0.3424  0.0104
   21DMF     C3  733   2.873   2.245   1.525 -0.1621 -0.1945  0.5787
   21DMF     O1  734   2.870   2.129   1.494  0.2005  0.1251 -0.3725
   21DMF     H1  735   3.217   2.289   1.550  1.0047 -0.4911 -0.6166
   21DMF     H2  736   3.120   2.173   1.446  1.7414  0.8589 -0.8544
   21DMF     H3  737   3.141   2.151   1.613 -0.5309  1.2045  0.2143
   21DMF     H4  738   2.971   2.495   1.483 -2.7667  1.0215  1.2589
   21DMF     H5  739   3.106   2.466   1.606 -0.8104  0.2725  0.6785
   21DMF     H6  740   2.922   2.473   1.652  1.8674  0.6154  2.4117
   21DMF     H7  741   2.791   2.319   1.519  2.3303  2.5639 -0.8183
   22DMF     C1  742   0.317   0.937   1.572 -0.2934  0.4041 -0.5222
   22DMF     N1  743   0.308   0.849   1.457  0.5247 -0.2183 -0.0696
   22DMF     C2  744   0.279   0.897   1.319 -0.1876 -0.7171 -0.5538
   22DMF     C3  745   0.339   0.714   1.476  0.2659 -0.2830  0.0450
   22DMF     O1  746   0.378   0.675   1.587 -0.5209  0.5228 -0.2007
   22DMF     H1  747   0.421   0.954   1.601 -0.3447  0.2524 -0.2411
   22DMF     H2  748   0.266   0.882   1.652 -1.7102 -0.4962 -2.0353
   22DMF     H3  749   0.253   1.025   1.556 -0.2656  0.8340  1.5266
   22DMF     H4  750   0.174   0.926   1.307  0.3761  1.9507  0.5115
   22DMF     H5  751   0.318   0.831   1.241 -1.3887 -0.9973 -0.9333
   22DMF     H6  752   0.337   0.989   1.307  1.3361 -1.4336  1.1281
   22DMF     H7  753   0.324   0.656   1.383  1.5205  0.6531 -0.7582
   23DMF     C1  754   0.116   2.766   1.463 -0.5922  0.2512  0.0980
   23DMF     N1  755   0.011   2.679   1.528 -0.2822  0.2509 -0.0921
   23DMF     C2  756   0.036   2.540   1.559  0.1428 -0.3668  0.1325
   23DMF     C3  757  -0.103   2.747   1.587  0.6729  0.6618  0.2907
   23DMF     O1  758  -0.125   2.866   1.567  0.5225 -0.3820  0.2668
   23DMF     H1  759   0.130   2.868   1.500 -0.4995 -0.3179  1.6716
   23DMF     H2  760   0.088   2.783   1.358 -0.9286 -1.1327 -0.0579
   23DMF     H3  761   0.210   2.710   1.459 -2.0066 -2.0824 -3.3695
   23DMF     H4  762  -0.048   2.509   1.624 -0.6259 -2.5608 -1.8100
   23DMF     H5  763   0.125   2.531   1.622  0.8403  1.5256 -0.5666
   23DMF     H6  764   0.043   2.481   1.467  1.4990 -0.8845  0.5570
   23DMF     H7  765  -0.158   2.692   1.666  0.7548  1.1063  0.6576
   24DMF     C1  766   1.087   1.828   2.468  0.1554  0.1628 -0.3096
   24DMF     N1  767   1.068   1.908   2.349  0.1308  0.2776  0.1321
   24DMF     C2  768   1.072   2.054   2.365  0.9647 -0.3143 -0.4516
   24DMF     C3  769   1.074   1.851   2.220  0.2452  0.3125  0.1959
   24DMF     O1  770   1.062   1.734   2.207  0.1597 -0.2461 -0.0518
   24DMF     H1  771   0.994   1.773   2.488  0.1742 -1.2835 -3.7816
   24DMF     H2  772   1.122   1.889   2.552  3.8325 -1.1344 -0.7963
   24DMF     H3  773   1.164   1.752   2.448 -0.2804  0.1377 -2.0185
   24DMF     H4  774   1.003   2.089   2.288 -2.0587 -0.4892  2.0703
   24DMF     H5  775   1.174   2.093   2.354  0.4942  1.0426 -0.1129
   24DMF     H6  776   1.035   2.086   2.463  0.3638 -0.7437 -0.5368
   24DMF     H7  777   1.096   1.929   2.145 -2.1023  0.2527 -0.5861
   25DMF     C1  778   2.937   2.957   3.069  0.4698 -0.1503 -0.5011
   25DMF     N1  779   3.035   3.066   3.082 -0.1979  0.1131 -1.1722
   25DMF     C2  780   3.050   3.161   2.969  0.1633 -0.4950 -0.1050
   25DMF     C3  781   3.112   3.086   3.199 -0.0871 -0.3289  0.1006
   25DMF     O1  782   3.082   3.030   3.308  0.0265  0.7736  0.5813
   25DMF     H1  783   2.975   2.865   3.117  2.4797  0.1587 -1.4622
   25DMF     H2  784   2.929   2.928   2.964  0.5580  1.9606 -1.1097
   25DMF     H3  785   2.843   3.000   3.107  0.0389  0.0072 -1.7144
   25DMF     H4  786   3.078   3.116   2.873 -1.1928 -1.6182  0.0256
   25DMF     H5  787   3.133   3.229   2.991  2.2561 -2.8057 -0.6046
   25DMF     H6  788   2.959   3.222   2.966 -0.3716 -1.1562  2.0443
   25DMF     H7  789   3.198   3.155   3.196  0.6084 -1.2070 -0.7529
   26DMF     C1  790   0.175   2.068   0.560 -0.4582  0.1519  0.6147
   26DMF     N1  791   0.041   2.115   0.524 -0.5297 -0.7526  0.0382
   26DMF     C2  792  -0.074   2.079   0.605  0.8443 -0.1221 -0.3726
   26DMF     C3  793   0.032   2.212   0.426 -0.6731 -0.2314  0.2758
   26DMF     O1  794   0.130   2.257   0.365  0.2474 -0.6605  0.5211
   26DMF     H1  795   0.206   1.988   0.491 -1.6180 -1.2459  1.7034
   26DMF     H2  796   0.167   2.020   0.658  0.5808  0.2960  0.7723
   26DMF     H3  797   0.254   2.144   0.558 -0.3469  0.0252 -0.4631
   26DMF     H4  798  -0.050   2.009   0.686 -1.8918  0.6574  1.1892
   26DMF     H5  799  -0.156   2.042   0.542  1.4849 -2.2846  0.0366
   26DMF     H6  800  -0.114   2.171   0.651  1.1144  0.1344 -0.6489
   26DMF     H7  801  -0.069   2.254   0.410 -0.6240 -0.3126 -0.2480
   27DMF     C1  802   0.674   0.798   2.243  0.2349 -0.8566  0.4823
   27DMF     N1  803   0.806   0.737   2.235  0.4172 -0.2161 -0.1230
   27DMF     C2  804   0.923   0.817   2.229  0.0750 -0.7590 -0.4298
   27DMF     C3  805   0.817   0.594   2.226  0.1911 -0.1625 -0.0359
   27DMF     O1  806   0.718   0.523   2.245 -0.6360  0.1127  0.2421
   27DMF     H1  807   0.613   0.775   2.155  1.6882 -1.6391 -0.3294
   27DMF     H2  808   0.692   0.904   2.264  1.7490 -0.9969 -0.0450
   27DMF     H3  809   0.627   0.755   2.333  2.2603  0.0280  2.0118
   27DMF     H4  810   0.954   0.851   2.329  0.4418 -1.3030 -0.3570
   27DMF     H5  811   0.899   0.905   2.168 -0.4787 -0.2004  0.5797
   27DMF     H6  812   1.011   0.766   2.188 -0.1928  0.2975 -2.3959
   27DMF     H7  813   0.922   0.564   2.208  0.5939  1.2691 -0.1342
   28DMF     C1  814   0.050   3.270   1.180  0.7541 -0.1956  0.3249
   28DMF     N1  815  -0.037   3.153   1.155  0.2488  0.4472 -0.9015
   28DMF     C2  816   0.007   3.013   1.189  0.1282 -0.0443  0.1886
   28DMF     C3  817  -0.160   3.167   1.085 -0.6464 -0.0646 -0.0221
   28DMF     O1  818  -0.201   3.276   1.049  0.2202 -0.3959  0.0570
   28DMF     H1  819   0.032   3.355   1.113 -0.0936 -0.2329  0.4996
   28DMF     H2  820   0.156   3.245   1.166  1.1179 -0.0969  2.7181
   28DMF     H3  821   0.023   3.306   1.280 -0.3359  0.3766 -0.1627
   28DMF     H4  822   0.109   3.019   1.227  0.2935 -1.1911 -0.0650
   28DMF     H5  823   0.003   2.947   1.101 -0.7827 -2.6494  2.1366
   28DMF     H6  824  -0.060   2.982   1.270  1.0767 -2.5502  0.0552
   28DMF     H7  825  -0.213   3.071   1.068 -1.3594  0.5062 -1.1283
   29DMF     C1  826   1.314   1.541   0.288  0.4159 -0.1030 -0.0880
   29DMF     N1  827   1.213   1.425   0.297 -0.0152 -0.4741  0.0550
   29DMF     C2  828   1.269   1.285   0.302 -0.3283 -0.0099 -0.2338
   29DMF     C3  829   1.074   1.447   0.268 -0.4361  0.6263  0.0831
   29DMF     O1  830   1.039   1.554   0.214  0.0955  0.6499 -0.5111
   29DMF     H1  831   1.342   1.555   0.183  0.7542 -2.4725 -0.3388
   29DMF     H2  832   1.407   1.511   0.338  0.6440 -0.6733 -0.8457
   29DMF     H3  833   1.277   1.636   0.328  0.7906 -0.1602  0.3960
   29DMF     H4  834   1.367   1.288   0.350  0.5223  0.7824 -1.9854
   29DMF     H5  835   1.282   1.248   0.200 -0.4633  1.1135 -0.6687
   29DMF     H6  836   1.189   1.229   0.352  1.9626 -0.9901  2.4679
   29DMF     H7  837   1.006   1.361   0.284  0.0481  0.4489  1.2935
   30DMF     C1  838   0.631   1.280   3.625 -0.5962  0.2100  0.0821
   30DMF     N1  839   0.542   1.230   3.527 -0.4904 -0.1552  0.2715
   30DMF     C2  840   0.543   1.291   3.394 -0.0127  0.5834  0.5829
   30DMF     C3  841   0.453   1.127   3.546  0.3031  0.3448  0.5676
   30DMF     O1  842   0.439   1.082   3.659 -0.0603  0.0760 -0.4284
   30DMF     H1  843   0.620   1.383   3.661  0.3816 -0.5484  2.6628
   30DMF     H2  844   0.729   1.257   3.581 -0.9155 -0.4518 -0.3044
   30DMF     H3  845   0.630   1.212   3.710  0.0094 -0.5612 -0.5187
   30DMF     H4  846   0.645   1.313   3.360 -0.4632  0.2706 -0.9981
   30DMF     H5  847   0.477   1.377   3.406  0.4962  1.2509 -1.2333
   30DMF     H6  848   0.507   1.216   3.322 -1.2142 -0.5994  2.3666
   30DMF     H7  849   0.386   1.104   3.461  0.7922 -1.3721  0.6133
   31DMF     C1  850   1.798   3.106   3.114  0.5604 -0.1952 -0.0094
   31DMF     N1  851   1.919   3.194   3.105  0.0976 -0.8401 -0.2873
   31DMF     C2  852   1.901   3.341   3.099  0.4902  0.4200 -0.0672
   31DMF     C3  853   2.048   3.138   3.125 -0.0254 -0.4576  0.3587
   31DMF     O1  854   2.060   3.021   3.145 -0.7123  0.3782 -0.0827
   31DMF     H1  855   1.712   3.173   3.123  0.6992  0.3152 -2.1679
   31DMF     H2  856   1.813   3.033   3.195  2.0991 -0.3799 -0.4414
   31DMF     H3  857   1.798   3.055   3.017 -1.0963  0.4172 -0.3412
   31DMF     H4  858   1.877   3.379   3.199 -2.5073 -0.6751 -0.3354
   31DMF     H5  859   1.814   3.379   3.043  1.4626  0.9159 -1.2833
   31DMF     H6  860   2.000   3.375   3.065 -0.5145  0.4541 -3.1723
   31DMF     H7  861   2.123   3.217   3.143  0.0888 -0.4151 -0.2996
   32DMF     C1  862   2.257   3.148   1.054 -0.3755  0.0474 -0.5821
   32DMF     N1  863   2.288   3.111   1.192 -0.2521 -0.3708 -0.5302
   32DMF     C2  864   2.293   2.977   1.238  0.0973  0.5722 -0.1133
   32DMF     C3  865   2.284   3.214   1.293 -0.4510 -0.1101  0.3062
   32DMF     O1  866   2.285   3.332   1.261  0.2971 -0.2691 -0.3646
   32DMF     H1  867   2.223   3.251   1.037 -1.5482 -0.1883  0.2221
   32DMF     H2  868   2.170   3.088   1.024 -0.5742  0.7380 -1.4108
   32DMF     H3  869   2.345   3.129   0.992  0.8947  2.3171  0.4570
   32DMF     H4  870   2.191   2.937   1.244  0.4520 -0.1842  0.9439
   32DMF     H5  871   2.342   2.974   1.336  0.6260 -0.0596 -0.3956
   32DMF     H6  872   2.352   2.922   1.164  1.1226  2.0380 -0.4197
   32DMF     H7  873   2.291   3.181   1.398  2.1169  1.8251  0.7710
   33DMF     C1  874   2.518   3.176   2.250 -0.1285 -0.5899 -0.1425
   33DMF     N1  875   2.655   3.229   2.236  0.5362  0.0356 -0.1319
   33DMF     C2  876   2.771   3.134   2.216 -0.3721 -0.1982 -0.0655
   33DMF     C3  877   2.675   3.365   2.253 -0.2147 -0.2127  0.0063
   33DMF     O1  878   2.588   3.445   2.268  0.1420 -0.4130 -0.3395
   33DMF     H1  879   2.512   3.067   2.237 -0.3306 -0.4844 -0.9783
   33DMF     H2  880   2.449   3.213   2.174 -1.6354  1.4367  2.1286
   33DMF     H3  881   2.469   3.219   2.338 -0.8513 -1.0735 -0.3087
   33DMF     H4  882   2.846   3.184   2.154 -0.6153 -0.0421 -0.2361
   33DMF     H5  883   2.740   3.045   2.159 -3.0189  0.4034  0.3452
   33DMF     H6  884   2.817   3.111   2.312 -0.3690 -0.3809 -0.1093
   33DMF     H7  885   2.780   3.399   2.242  0.1896 -2.3492 -3.6936
   34DMF     C1  886   1.058   0.314   2.386  0.1813  0.1088  0.1284
   34DMF     N1  887   1.163   0.343   2.285  0.0276 -0.4530  0.8064
   34DMF     C2  888   1.236   0.227   2.223  0.0503 -0.5600  0.0310
   34DMF     C3  889   1.201   0.476   2.255 -0.0469 -0.9267  0.9426
   34DMF     O1  890   1.151   0.575   2.304  0.1923 -0.0467  0.0516
   34DMF     H1  891   1.116   0.301   2.479  1.1570  0.7562 -0.3808
   34DMF     H2  892   1.003   0.221   2.366 -0.9708  0.5499  1.1410
   34DMF     H3  893   0.990   0.398   2.403 -1.0562 -0.3553 -2.3986
   34DMF     H4  894   1.162   0.179   2.158  2.0368 -1.5652 -1.5424
   34DMF     H5  895   1.265   0.158   2.303  0.6054 -2.9197 -2.1355
   34DMF     H6  896   1.315   0.251   2.150 -1.0027 -2.0388 -1.6244
   34DMF     H7  897   1.282   0.479   2.180 -1.9135  0.8756 -1.0923
   35DMF     C1  898   2.342   1.743   2.713 -0.1643  0.5529 -0.1948
   35DMF     N1  899   2.481   1.762   2.759 -0.0789 -0.4371 -0.3092
   35DMF     C2  900   2.493   1.777   2.908 -0.1072 -0.3679 -0.2976
   35DMF     C3  901   2.590   1.780   2.677 -0.4485 -0.3654  0.1972
   35DMF     O1  902   2.584   1.776   2.556  0.4510  0.1441  0.1093
   35DMF     H1  903   2.273   1.826   2.734 -0.2027  0.6840 -0.8199
   35DMF     H2  904   2.312   1.645   2.751 -0.1234  0.9971  1.0027
   35DMF     H3  905   2.353   1.730   2.604  0.3119  1.1746 -0.2225
   35DMF     H4  906   2.417   1.841   2.954 -1.7081 -2.1358 -0.4163
   35DMF     H5  907   2.589   1.824   2.932 -0.1897 -0.4639  0.2075
   35DMF     H6  908   2.471   1.676   2.945 -0.2326  0.0819  0.8708
   35DMF     H7  909   2.679   1.803   2.738  0.8719 -0.4049 -1.6775
   36DMF     C1  910   0.895   2.553   1.570 -0.2614 -0.2257 -0.4203
   36DMF     N1  911   0.967   2.425   1.557  0.0662  0.0608  0.5107
   36DMF     C2  912   0.895   2.295   1.545  0.3821  0.3512 -0.2692
   36DMF     C3  913   1.105   2.431   1.569 -0.1332 -0.0584 -0.5251
   36DMF     O1  914   1.162   2.535   1.561  0.0655  0.2056 -0.5622
   36DMF     H1  915   0.918   2.607   1.663  1.6931 -1.4145 -0.1898
   36DMF     H2  916   0.787   2.542   1.555  0.0643 -1.5026 -2.0478
   36DMF     H3  917   0.938   2.625   1.500 -0.4341 -0.8178 -1.1429
   36DMF     H4  918   0.949   2.209   1.585 -0.5212 -0.6311 -1.1416
   36DMF     H5  919   0.879   2.270   1.439 -0.7215 -0.7794  0.1541
   36DMF     H6  920   0.795   2.297   1.590  0.4235  1.0161 -0.1905
   36DMF     H7  921   1.160   2.335   1.569  1.1207  0.6211  1.9527
   37DMF     C1  922   1.331   1.597   1.556 -0.1531  0.0197  0.1420
   37DMF     N1  923   1.325   1.453   1.575  0.0589 -0.2210  0.8206
   37DMF     C2  924   1.449   1.379   1.581  0.0401  0.0827 -0.1028
   37DMF     C3  925   1.207   1.380   1.567  0.0692  0.2038 -0.9424
   37DMF     O1  926   1.097   1.438   1.565  0.4148 -0.5134 -0.0723
   37DMF     H1  927   1.231   1.630   1.526 -0.0863 -0.8994 -1.1312
   37DMF     H2  928   1.393   1.628   1.472 -0.3332  1.0099  0.3644
   37DMF     H3  929   1.357   1.654   1.646  0.0219  1.2329 -0.6610
   37DMF     H4  930   1.425   1.276   1.612  0.1539 -0.0193 -0.3462
   37DMF     H5  931   1.524   1.426   1.646 -1.0802  2.7775 -0.6908
   37DMF     H6  932   1.479   1.378   1.475 -0.2299  2.4155 -0.2068
   37DMF     H7  933   1.220   1.273   1.544 -1.6811  0.0681 -1.3753
   38DMF     C1  934   1.131   0.809   1.232 -0.4984 -1.2899 -0.0663
   38DMF     N1  935   1.196   0.697   1.147 -0.2807 -0.0180 -0.2438
   38DMF     C2  936   1.268   0.600   1.229  0.3156 -0.0900 -0.6223
   38DMF     C3  937   1.176   0.691   1.013  0.7845 -0.3790 -0.0991
   38DMF     O1  938   1.116   0.782   0.959 -0.5356  0.2029  0.4807
   38DMF     H1  939   1.041   0.771   1.282 -1.7293  1.8235  0.2270
   38DMF     H2  940   1.104   0.900   1.176 -1.8525 -0.2093  2.2610
   38DMF     H3  941   1.201   0.840   1.311  0.2522  1.2169 -1.6458
   38DMF     H4  942   1.228   0.596   1.331  0.0654  0.8266 -0.6814
   38DMF     H5  943   1.373   0.628   1.244  0.3030 -0.0466 -0.6172
   38DMF     H6  944   1.269   0.496   1.193  4.4926 -1.3269  2.7446
   38DMF     H7  945   1.215   0.604   0.957 -0.8378 -0.1991 -1.5629
   39DMF     C1  946   1.317   2.569   3.322 -0.5094 -0.0997 -0.0713
   39DMF     N1  947   1.198   2.531   3.403  0.0346  0.3286 -0.5226
   39DMF     C2  948   1.107   2.639   3.437  0.1107 -0.1753  0.5899
   39DMF     C3  949   1.155   2.397   3.408  0.4994 -0.0187 -0.0064
   39DMF     O1  950   1.231   2.301   3.391  0.2232  0.2003  0.8542
   39DMF     H1  951   1.390   2.487   3.326 -2.1982 -1.5673  4.2064
   39DMF     H2  952   1.363   2.665   3.346  1.5631 -0.9024 -0.7401
   39DMF     H3  953   1.283   2.577   3.218  0.3034 -3.6864 -0.6853
   39DMF     H4  954   1.119   2.716   3.360  1.4574 -0.8366  0.1292
   39DMF     H5  955   1.126   2.681   3.536 -0.0963 -1.7572  1.3221
   39DMF     H6  956   1.006   2.599   3.456 -1.2165  2.7072 -0.1438
   39DMF     H7  957   1.048   2.383   3.431  0.3117  2.0788  0.4838
   40DMF     C1  958   2.592   2.666   1.529  0.2952 -0.1427  0.5913
   40DMF     N1  959   2.451   2.634   1.546 -0.2823 -0.3839 -0.4853
   40DMF     C2  960   2.353   2.741   1.528 -0.0583 -0.6377 -0.7774
   40DMF     C3  961   2.407   2.503   1.557  0.0697 -0.3548  0.6890
   40DMF     O1  962   2.480   2.404   1.549 -0.8033 -0.0140 -0.1631
   40DMF     H1  963   2.607   2.658   1.421 -1.2037  0.2314  0.3354
   40DMF     H2  964   2.660   2.590   1.569 -1.0268 -2.5821 -1.6591
   40DMF     H3  965   2.615   2.765   1.572  0.1661  0.6005 -1.0309
   40DMF     H4  966   2.282   2.724   1.446  0.7289  3.0065 -2.2819
   40DMF     H5  967   2.395   2.840   1.508  1.1201 -0.9005  0.3531
   40DMF     H6  968   2.290   2.743   1.618 -0.7751 -1.6970 -1.2400
   40DMF     H7  969   2.297   2.497   1.563 -0.0855  0.8914 -0.5487
   41DMF     C1  970   2.351   2.041   2.254  0.4698 -0.2365  1.0578
   41DMF     N1  971   2.477   2.107   2.275 -0.2442 -0.0791  0.0976
   41DMF     C2  972   2.602   2.021   2.288  0.8663  0.0338 -0.2913
   41DMF     C3  973   2.484   2.244   2.253  0.4771 -0.7772 -0.2014
   41DMF     O1  974   2.389   2.320   2.254  0.3987  0.8606  0.0963
   41DMF     H1  975   2.365   1.952   2.191  2.7396 -1.9740  3.9200
   41DMF     H2  976   2.273   2.097   2.200  1.2348 -1.1768 -1.0697
   41DMF     H3  977   2.306   2.022   2.352 -0.5861 -1.7044  0.3173
   41DMF     H4  978   2.611   1.949   2.206 -1.3092  1.0147 -1.4405
   41DMF     H5  979   2.589   1.966   2.382  0.2737  1.1920  0.3173
   41DMF     H6  980   2.691   2.085   2.287  1.1532 -0.3785 -0.8599
   41DMF     H7  981   2.586   2.285   2.244  0.1861  0.0226  0.0978
   42DMF     C1  982   0.834   0.905   0.881 -0.2049  0.7180 -0.4840
   42DMF     N1  983   0.730   1.002   0.847 -0.2753  0.4497  0.4662
   42DMF     C2  984   0.753   1.083   0.731 -0.5863  0.1302  0.0093
   42DMF     C3  985   0.640   1.051   0.947 -0.2048 -0.3459 -0.2515
   42DMF     O1  986   0.617   0.996   1.054 -0.5481  0.3011 -0.2214
   42DMF     H1  987   0.792   0.809   0.849 -0.5095  0.6481  0.1175
   42DMF     H2  988   0.828   0.910   0.990 -0.9820  0.1202 -0.4932
   42DMF     H3  989   0.930   0.943   0.846  0.1805 -0.7134 -1.0253
   42DMF     H4  990   0.813   1.174   0.743 -1.2086  0.4311  0.8505
   42DMF     H5  991   0.654   1.112   0.692 -0.8790 -0.5113  0.2729
   42DMF     H6  992   0.812   1.021   0.662  1.0150 -0.5195  1.9280
   42DMF     H7  993   0.595   1.149   0.924 -1.1503 -0.7852 -0.2730
   43DMF     C1  994   1.240   1.979   0.004  0.3606  0.3319  0.4562
   43DMF     N1  995   1.152   1.872   0.056  0.1812 -0.2828 -0.5940
   43DMF     C2  996   1.139   1.750  -0.023  0.8804  0.5618 -0.0514
   43DMF     C3  997   1.058   1.899   0.157 -0.2968  0.1888 -0.2868
   43DMF     O1  998   1.063   2.005   0.217 -0.1137 -0.3863 -0.2377
   43DMF     H1  999   1.296   1.945  -0.083 -1.2381 -1.9966  0.2795
   43DMF     H2 1000   1.311   2.015   0.080  1.4536 -1.5175  0.3442
   43DMF     H3 1001   1.177   2.065  -0.022 -0.3431  0.3832  2.2445
   43DMF     H4 1002   1.202   1.755  -0.113  1.0421 -0.6743 -0.0083
   43DMF     H5 1003   1.033   1.743  -0.048  0.8585 -2.2196  0.6992
   43DMF     H6 1004   1.171   1.665   0.038 -2.8007 -0.4240  0.5852
   43DMF     H7 1005   0.983   1.822   0.183 -1.3171  2.1339  2.7759
   44DMF     C1 1006   1.791   2.390   1.252 -0.3860  0.1336  0.2046
   44DMF     N1 1007   1.654   2.426   1.207  0.0677  0.4515 -0.4941
   44DMF     C2 1008   1.622   2.567   1.197  0.3719  0.0939 -0.0443
   44DMF     C3 1009   1.562   2.329   1.167 -0.3238 -0.3635  0.0187
   44DMF     O1 1010   1.590   2.212   1.164  0.2520  0.1640  0.1160
   44DMF     H1 1011   1.805   2.284   1.278 -1.9195 -0.5780 -1.7617
   44DMF     H2 1012   1.796   2.444   1.348  1.8377  2.2215 -1.0312
   44DMF     H3 1013   1.871   2.423   1.185  0.2599  3.0194  2.3217
   44DMF     H4 1014   1.707   2.634   1.211  0.5804 -0.7732  3.2652
   44DMF     H5 1015   1.549   2.591   1.276  0.0330 -1.2287  0.0530
   44DMF     H6 1016   1.574   2.589   1.101 -2.0548 -0.4503  0.9940
   44DMF     H7 1017   1.466   2.373   1.136 -0.9930 -1.1122  0.9958
   45DMF     C1 1018   1.579   1.555   3.275  0.0350  0.5093  0.2007
   45DMF     N1 1019   1.521   1.631   3.157 -0.4369 -0.3005 -0.5304
   45DMF     C2 1020   1.507   1.557   3.034 -0.2799  0.1579 -0.6208
   45DMF     C3 1021   1.541   1.773   3.154  0.0323 -0.3941  0.5365
   45DMF     O1 1022   1.582   1.836   3.252  0.2628  0.5533  0.3177
   45DMF     H1 1023   1.679   1.523   3.247 -0.3312  0.6497 -1.3045
   45DMF     H2 1024   1.512   1.470   3.292  0.3641 -0.2283 -2.1354
   45DMF     H3 1025   1.583   1.627   3.359  0.7510  0.7347 -0.0222
   45DMF     H4 1026   1.407   1.512   3.025  0.9501 -2.3549 -2.1928
   45DMF     H5 1027   1.575   1.472   3.024  0.1998  0.4380  0.2125
   45DMF     H6 1028   1.517   1.634   2.956 -1.4272 -0.8142 -1.7419
   45DMF     H7 1029   1.527   1.824   3.057  0.6185 -0.3870  0.4547
   46DMF     C1 1030   1.207   2.745   0.356 -0.4613 -0.4900  0.1160
   46DMF     N1 1031   1.262   2.874   0.393 -0.0298  0.4622 -0.3481
   46DMF     C2 1032   1.412   2.894   0.363 -0.0059 -0.5261  0.2860
   46DMF     C3 1033   1.176   2.977   0.449 -0.7025 -0.2371 -0.1198
   46DMF     O1 1034   1.054   2.959   0.467 -0.3362  0.3331 -0.2920
   46DMF     H1 1035   1.109   2.770   0.314 -0.1988 -3.1529 -2.1951
   46DMF     H2 1036   1.199   2.677   0.442 -2.8052 -0.9308 -0.4424
   46DMF     H3 1037   1.280   2.712   0.281 -0.0952  1.0075 -0.1992
   46DMF     H4 1038   1.461   2.934   0.453 -1.2312  2.1278 -0.1720
   46DMF     H5 1039   1.418   2.984   0.300  0.2427 -0.0943  0.9175
   46DMF     H6 1040   1.458   2.817   0.301  0.7719  1.1663 -1.3067
   46DMF     H7 1041   1.228   3.072   0.475 -0.9283 -0.3673  0.8490
   47DMF     C1 1042   3.339   3.260   2.269 -0.2841 -0.0966 -0.4436
   47DMF     N1 1043   3.436   3.379   2.278 -0.1654  0.1778  0.2252
   47DMF     C2 1044   3.385   3.510   2.235  0.0986 -0.3943 -0.5837
   47DMF     C3 1045   3.576   3.353   2.275 -0.0050  0.3908  0.0341
   47DMF     O1 1046   3.621   3.247   2.310  0.5726  0.5783 -0.1636
   47DMF     H1 1047   3.244   3.296   2.228  0.4899 -0.6269 -2.7553
   47DMF     H2 1048   3.319   3.224   2.371 -0.0258 -0.7375 -0.6153
   47DMF     H3 1049   3.372   3.178   2.204 -0.6949  0.2265 -1.0568
   47DMF     H4 1050   3.302   3.487   2.167 -0.6913 -1.0072  0.5674
   47DMF     H5 1051   3.459   3.566   2.177 -0.9534  0.4094 -1.1594
   47DMF     H6 1052   3.351   3.570   2.320  1.2016  0.7410 -0.9378
   47DMF     H7 1053   3.642   3.439   2.254 -0.1267  0.4900  0.0554
   48DMF     C1 1054   1.396   1.206   0.631  0.0123 -0.1004 -0.4710
   48DMF     N1 1055   1.315   1.087   0.685  0.3217 -0.9896  0.5351
   48DMF     C2 1056   1.338   0.953   0.624  0.0247 -0.1170  0.5462
   48DMF     C3 1057   1.227   1.108   0.789 -1.1996 -0.2346 -0.3563
   48DMF     O1 1058   1.213   1.213   0.848  0.1782  0.6298  0.6061
   48DMF     H1 1059   1.338   1.288   0.586 -1.6177 -0.7770  0.3615
   48DMF     H2 1060   1.487   1.169   0.581  0.2277 -1.1114  0.6302
   48DMF     H3 1061   1.426   1.254   0.725 -1.2087  1.6950 -0.9792
   48DMF     H4 1062   1.299   0.947   0.522 -0.3504  0.6154  0.6375
   48DMF     H5 1063   1.292   0.875   0.685  1.5335 -1.7161 -0.3344
   48DMF     H6 1064   1.445   0.930   0.617 -0.0371 -0.9178  2.0466
   48DMF     H7 1065   1.178   1.015   0.824 -3.2410  1.0953  0.4242
   49DMF     C1 1066   3.028   2.796   2.287 -0.2234 -0.1863 -0.2296
   49DMF     N1 1067   3.170   2.788   2.301  0.5518  0.5246 -0.2822
   49DMF     C2 1068   3.247   2.905   2.248  0.1542 -0.8128 -0.2408
   49DMF     C3 1069   3.239   2.674   2.350  0.5087 -0.4783 -0.1061
   49DMF     O1 1070   3.179   2.578   2.398  0.0838 -0.0141  0.0787
   49DMF     H1 1071   2.996   2.698   2.250  2.2125 -0.8464 -0.7114
   49DMF     H2 1072   2.994   2.866   2.211 -1.9547 -2.7132 -1.8455
   49DMF     H3 1073   2.984   2.802   2.387  0.6583 -0.1584  0.1669
   49DMF     H4 1074   3.263   2.897   2.140 -1.8905 -1.0902 -0.5418
   49DMF     H5 1075   3.341   2.920   2.302 -0.3462  0.3159  0.3292
   49DMF     H6 1076   3.181   2.991   2.263  0.0636 -1.0661  0.8520
   49DMF     H7 1077   3.347   2.696   2.342 -0.6121  4.5138 -3.1996
   50DMF     C1 1078   1.878   3.101   2.725 -0.3390  0.4342  0.3286
   50DMF     N1 1079   2.003   3.012   2.732 -0.2392  0.2872  0.3795
   50DMF     C2 1080   2.137   3.066   2.710 -0.0146  0.3241 -0.2017
   50DMF     C3 1081   1.982   2.866   2.746  0.4937 -0.6970 -0.2212
   50DMF     O1 1082   1.865   2.834   2.766 -0.0723  0.3561 -0.2880
   50DMF     H1 1083   1.848   3.106   2.620 -0.1204 -0.0771  0.2413
   50DMF     H2 1084   1.918   3.198   2.755 -0.4573  0.5525  0.1077
   50DMF     H3 1085   1.798   3.067   2.792 -0.9744 -3.3865 -2.2162
   50DMF     H4 1086   2.126   3.147   2.637 -1.2747 -0.9616 -1.4720
   50DMF     H5 1087   2.201   2.994   2.658 -1.0702 -0.5199 -0.3436
   50DMF     H6 1088   2.171   3.107   2.805  0.0155 -0.4077  0.1076
   50DMF     H7 1089   2.072   2.803   2.738  0.4076 -0.6360 -2.0056
   51DMF     C1 1090   2.203   1.999   3.609 -0.0750  0.0765 -0.4471
   51DMF     N1 1091   2.126   2.053   3.500 -0.6963 -0.0035  0.5144
   51DMF     C2 1092   2.077   1.945   3.413 -0.2676  0.1292  0.1983
   51DMF     C3 1093   2.131   2.184   3.463  0.0223 -0.4631  0.0987
   51DMF     O1 1094   2.186   2.269   3.531 -0.4881  0.1820  0.0212
   51DMF     H1 1095   2.138   1.944   3.677 -0.2603  1.8868  0.8688
   51DMF     H2 1096   2.240   2.081   3.671 -1.8531 -1.0944  2.2283
   51DMF     H3 1097   2.280   1.932   3.567  1.7106  0.4004  2.2150
   51DMF     H4 1098   2.037   1.995   3.323 -2.1746 -1.5839  0.0595
   51DMF     H5 1099   1.990   1.896   3.460  0.6389 -0.4973  1.2479
   51DMF     H6 1100   2.161   1.875   3.408 -0.4289  0.0118 -1.0492
   51DMF     H7 1101   2.080   2.202   3.366  0.8661  1.5083 -0.0102
   52DMF     C1 1102   3.226   3.004   2.565 -0.8771  0.4633  0.0201
   52DMF     N1 1103   3.086   3.017   2.589  0.0544  0.0702 -0.1413
   52DMF     C2 1104   3.013   2.902   2.650 -0.7922 -0.0138  0.0161
   52DMF     C3 1105   3.013   3.133   2.550  0.6731 -0.4120  0.6504
   52DMF     O1 1106   3.063   3.242   2.507  0.4417 -0.1817 -0.2789
   52DMF     H1 1107   3.257   3.077   2.490  0.2633  1.0289  1.0442
   52DMF     H2 1108   3.250   2.906   2.521 -0.4412 -0.6465  2.6398
   52DMF     H3 1109   3.288   3.021   2.654  1.0599  3.4157 -1.8193
   52DMF     H4 1110   2.908   2.902   2.619 -0.7640 -0.7541 -0.0838
   52DMF     H5 1111   3.034   2.895   2.758  0.7157 -1.8590 -0.3641
   52DMF     H6 1112   3.054   2.808   2.611  0.0477  0.2046  0.3548
   52DMF     H7 1113   2.905   3.136   2.572  0.5799 -0.4472  0.1981
   53DMF     C1 1114   1.610   3.381   2.263  0.3335  0.6314  0.0037
   53DMF     N1 1115   1.758   3.383   2.242  0.1807  0.3231  0.5028
   53DMF     C2 1116   1.836   3.264   2.266 -0.1969  0.4623 -0.4427
   53DMF     C3 1117   1.831   3.499   2.242 -0.1118 -0.1797  0.6545
   53DMF     O1 1118   1.781   3.609   2.256  0.0496  0.2887 -0.2595
   53DMF     H1 1119   1.568   3.281   2.248  1.7663 -0.1072  0.8133
   53DMF     H2 1120   1.580   3.450   2.183  1.5155  1.1024 -0.0339
   53DMF     H3 1121   1.590   3.414   2.366  1.5705  2.2296 -0.2550
   53DMF     H4 1122   1.932   3.272   2.212  1.2952 -1.2823  1.8430
   53DMF     H5 1123   1.778   3.175   2.239  1.8061 -1.0408  0.0998
   53DMF     H6 1124   1.864   3.259   2.372  0.4186  2.0658 -0.5167
   53DMF     H7 1125   1.940   3.480   2.244 -0.2698 -1.7656 -2.6133
   54DMF     C1 1126   3.101   1.522   0.299 -0.3646 -0.5225  0.2103
   54DMF     N1 1127   3.232   1.489   0.363  0.6452  0.3533  0.1541
   54DMF     C2 1128   3.276   1.350   0.339  0.6290  0.7165  0.0576
   54DMF     C3 1129   3.303   1.573   0.449  0.8309 -0.9042  0.0634
   54DMF     O1 1130   3.260   1.672   0.496 -0.1899 -0.3385  0.3859
   54DMF     H1 1131   3.122   1.541   0.193 -1.7677  1.6531  0.2773
   54DMF     H2 1132   3.060   1.609   0.353 -0.0194  0.4878 -1.1388
   54DMF     H3 1133   3.034   1.435   0.294  0.5903 -1.2559  0.0361
   54DMF     H4 1134   3.210   1.278   0.389  0.9772  0.2452 -0.1550
   54DMF     H5 1135   3.377   1.320   0.372 -0.5149 -1.0011  2.1538
   54DMF     H6 1136   3.263   1.331   0.232  0.4422 -1.2636  0.4169
   54DMF     H7 1137   3.404   1.535   0.472  1.5263  1.2407  0.6792
   55DMF     C1 1138   2.538   2.223   3.542 -0.1106  0.0848  0.1160
   55DMF     N1 1139   2.568   2.225   3.689 -0.2432  0.0681  0.0610
   55DMF     C2 1140   2.608   2.349   3.749  0.4140  0.3169 -0.2370
   55DMF     C3 1141   2.550   2.111   3.769  0.0432  0.4008  0.5359
   55DMF     O1 1142   2.538   2.002   3.717  0.1568 -0.2105 -0.3031
   55DMF     H1 1143   2.458   2.152   3.521  1.3365 -1.3697 -0.5747
   55DMF     H2 1144   2.631   2.184   3.498  0.0942  0.5090  0.1691
   55DMF     H3 1145   2.509   2.321   3.503 -3.8229 -1.5077 -1.2982
   55DMF     H4 1146   2.521   2.405   3.786  0.9087 -0.2316  1.8527
   55DMF     H5 1147   2.657   2.409   3.671  1.4992 -2.9282 -2.1365
   55DMF     H6 1148   2.677   2.333   3.833 -1.7841  0.3077  1.6165
   55DMF     H7 1149   2.567   2.123   3.877  1.0171  0.5082  0.3740
   56DMF     C1 1150   0.335   3.117   3.624  0.1894 -0.4199 -0.4675
   56DMF     N1 1151   0.276   3.224   3.546  0.5766 -0.7474  0.2578
   56DMF     C2 1152   0.205   3.324   3.621  0.9318 -0.1567  0.5468
   56DMF     C3 1153   0.287   3.231   3.405 -0.3687  1.0329  0.2751
   56DMF     O1 1154   0.350   3.153   3.333  0.2422 -0.5236 -0.3180
   56DMF     H1 1155   0.273   3.027   3.634  1.6752 -1.2763  1.4399
   56DMF     H2 1156   0.353   3.146   3.729  1.3490 -1.0446 -0.4746
   56DMF     H3 1157   0.430   3.084   3.579  0.2714  2.4094 -2.4410
   56DMF     H4 1158   0.204   3.310   3.730 -0.7639 -2.7166  0.2581
   56DMF     H5 1159   0.098   3.335   3.601  0.9082  1.0962  1.2964
   56DMF     H6 1160   0.265   3.413   3.599 -0.4478  1.2756  2.4347
   56DMF     H7 1161   0.225   3.306   3.353  0.1900  0.5735 -1.0736
   57DMF     C1 1162   0.233   0.946   0.964  0.5002  0.2891 -0.0312
   57DMF     N1 1163   0.200   1.060   0.875 -0.2719  0.7700 -0.3547
   57DMF     C2 1164   0.077   1.140   0.905 -0.4781 -0.0439  0.4573
   57DMF     C3 1165   0.293   1.114   0.792  0.6810  0.2071 -0.0825
   57DMF     O1 1166   0.397   1.063   0.760  0.2098  0.1334 -0.1937
   57DMF     H1 1167   0.296   0.985   1.045  0.0667 -1.8355  1.3684
   57DMF     H2 1168   0.300   0.877   0.911 -1.0762 -3.3616  2.6032
   57DMF     H3 1169   0.152   0.889   1.009  0.3215  1.3741  1.0539
   57DMF     H4 1170   0.071   1.172   1.009 -0.2808 -1.2577  0.8496
   57DMF     H5 1171  -0.009   1.077   0.882  0.3490 -0.7931 -0.6149
   57DMF     H6 1172   0.068   1.230   0.842  3.6177 -0.6078 -1.1378
   57DMF     H7 1173   0.260   1.199   0.730  1.4394  0.9010  0.4344
   58DMF     C1 1174   2.669   0.149   1.180  0.2524 -1.0632  1.2131
   58DMF     N1 1175   2.524   0.148   1.148  0.6192  1.1434 -0.6818
   58DMF     C2 1176   2.434   0.222   1.238 -0.0025  0.0289 -0.4726
   58DMF     C3 1177   2.463   0.052   1.067 -0.4170  0.4245  0.4171
   58DMF     O1 1178   2.518  -0.020   0.991 -0.0240  0.1370 -0.5287
   58DMF     H1 1179   2.689   0.055   1.232 -1.2920 -1.7306  0.6248
   58DMF     H2 1180   2.692   0.232   1.248 -0.2044 -0.2480  0.3865
   58DMF     H3 1181   2.723   0.149   1.085 -2.3939  0.2291 -0.3636
   58DMF     H4 1182   2.334   0.177   1.228 -0.5789  1.6308 -2.0804
   58DMF     H5 1183   2.430   0.330   1.223 -0.8286  0.0039 -0.4574
   58DMF     H6 1184   2.471   0.196   1.338 -0.0158  3.3464  0.4548
   58DMF     H7 1185   2.352   0.057   1.073 -0.4032  2.8890 -0.6339
   59DMF     C1 1186   1.319   1.406   2.581  0.9474  0.9264  0.5150
   59DMF     N1 1187   1.195   1.433   2.658  1.2292 -0.3461 -0.1270
   59DMF     C2 1188   1.074   1.355   2.636 -0.1749  0.5337  0.6223
   59DMF     C3 1189   1.197   1.529   2.752 -0.2672 -0.1873  0.0140
   59DMF     O1 1190   1.294   1.606   2.773  0.0810  1.0395  0.6126
   59DMF     H1 1191   1.340   1.504   2.538 -0.6447  0.3122 -1.7848
   59DMF     H2 1192   1.296   1.325   2.511 -1.6349  1.6475  0.4547
   59DMF     H3 1193   1.399   1.375   2.649  0.7304  0.7502  0.6898
   59DMF     H4 1194   1.092   1.279   2.559  3.2354  1.6996  0.1721
   59DMF     H5 1195   0.989   1.415   2.599 -0.8901 -0.5370  0.5206
   59DMF     H6 1196   1.056   1.296   2.726 -0.3422  0.9268  0.8472
   59DMF     H7 1197   1.105   1.534   2.813  0.8637  0.8878  1.6689
   60DMF     C1 1198   2.939   1.844   2.432 -0.4220 -0.3652 -0.2797
   60DMF     N1 1199   3.017   1.806   2.317  0.0193  0.1857 -0.5737
   60DMF     C2 1200   2.976   1.680   2.243 -0.5770  0.2081 -0.3128
   60DMF     C3 1201   3.128   1.878   2.276 -0.2695  0.0146  0.0648
   60DMF     O1 1202   3.157   1.990   2.321 -0.3792 -0.4733 -0.0145
   60DMF     H1 1203   2.940   1.954   2.438 -1.3362 -0.4595  2.2344
   60DMF     H2 1204   2.974   1.814   2.531  0.3638  0.1961 -0.3762
   60DMF     H3 1205   2.838   1.803   2.429 -0.3523 -0.5993  0.5729
   60DMF     H4 1206   2.907   1.617   2.300 -0.5756 -0.6002 -1.1834
   60DMF     H5 1207   3.056   1.615   2.205 -1.5636 -0.1852 -1.7603
   60DMF     H6 1208   2.921   1.716   2.155 -3.2589 -1.2336  0.7049
   60DMF     H7 1209   3.190   1.824   2.202 -0.4577  0.9508 -0.7905
   61DMF     C1 1210   1.163   0.124   1.571 -0.0093 -0.4045  0.1177
   61DMF     N1 1211   1.200   0.134   1.422  0.3042 -0.5164  0.7305
   61DMF     C2 1212   1.191   0.016   1.329 -1.0782 -1.3269 -0.5337
   61DMF     C3 1213   1.264   0.245   1.375  0.0725 -0.5888  0.6199
   61DMF     O1 1214   1.281   0.344   1.442 -0.1750  0.0759  0.0111
   61DMF     H1 1215   1.129   0.219   1.613 -0.9722 -0.7361  0.1046
   61DMF     H2 1216   1.252   0.097   1.629 -0.1726 -0.9027  0.1406
   61DMF     H3 1217   1.079   0.055   1.587 -2.4422  2.2985 -0.5568
   61DMF     H4 1218   1.119   0.036   1.249 -0.1381  1.1056 -0.8157
   61DMF     H5 1219   1.167  -0.083   1.369  2.6234 -1.2033  2.2078
   61DMF     H6 1220   1.292   0.008   1.288 -0.7249  1.6069 -0.3338
   61DMF     H7 1221   1.299   0.237   1.270 -2.1996  1.1407 -0.3150
   62DMF     C1 1222   1.919   0.273   0.468 -0.6357 -0.3605  0.4451
   62DMF     N1 1223   1.955   0.378   0.566 -0.6092  0.3723 -0.0723
   62DMF     C2 1224   2.044   0.340   0.684 -0.5247  0.5992  0.5083
   62DMF     C3 1225   1.869   0.495   0.582 -0.0151  0.0712 -0.0564
   62DMF     O1 1226   1.775   0.525   0.518  0.2865  0.3076  0.4580
   62DMF     H1 1227   1.895   0.309   0.367  1.4654  0.9516  0.3868
   62DMF     H2 1228   1.834   0.205   0.485 -0.8824  0.3146  1.9190
   62DMF     H3 1229   2.007   0.208   0.454 -2.0273 -1.8025 -1.9253
   62DMF     H4 1230   2.152   0.351   0.665 -0.7839 -2.0335 -3.2508
   62DMF     H5 1231   2.031   0.233   0.706  2.0552 -0.4130 -2.4356
   62DMF     H6 1232   2.015   0.404   0.768 -0.8658  1.1207 -0.0028
   62DMF     H7 1233   1.904   0.558   0.666 -0.0639 -0.9589  0.7446
   63DMF     C1 1234   0.152   0.316   2.622 -0.4803 -0.8194 -0.3918
   63DMF     N1 1235   0.193   0.451   2.663  0.0035 -0.0531 -0.5557
   63DMF     C2 1236   0.267   0.528   2.573  0.1346 -0.2629  0.4867
   63DMF     C3 1237   0.206   0.482   2.802 -0.2196  0.3534 -0.0457
   63DMF     O1 1238   0.151   0.411   2.896 -0.3724 -0.3353 -0.4635
   63DMF     H1 1239   0.219   0.283   2.542  1.1144  0.0752  0.5467
   63DMF     H2 1240   0.053   0.317   2.576 -0.5688  0.2903 -0.1769
   63DMF     H3 1241   0.148   0.248   2.709 -1.8687  0.2002  0.3759
   63DMF     H4 1242   0.317   0.609   2.626 -0.5935  0.2746  0.3601
   63DMF     H5 1243   0.205   0.580   2.499  1.6900  0.8718 -0.0455
   63DMF     H6 1244   0.345   0.467   2.525 -1.5085 -1.8202 -0.2530
   63DMF     H7 1245   0.256   0.577   2.829 -1.6573  1.3674 -0.9345
   64DMF     C1 1246   2.124   2.207   1.390 -0.0527 -0.4709  0.4859
   64DMF     N1 1247   2.032   2.270   1.484  0.8502 -0.5703  0.4972
   64DMF     C2 1248   1.927   2.179   1.546  0.1670  0.0696  0.0365
   64DMF     C3 1249   2.022   2.405   1.501  0.3028 -0.2517  0.0009
   64DMF     O1 1250   2.091   2.485   1.442  0.3672 -0.5520  0.0820
   64DMF     H1 1251   2.170   2.272   1.314 -1.0951  0.4425  0.6302
   64DMF     H2 1252   2.070   2.130   1.333  1.7727 -1.0892 -0.4797
   64DMF     H3 1253   2.207   2.169   1.451 -1.0596 -2.9566  0.3668
   64DMF     H4 1254   1.865   2.135   1.467 -0.0162 -1.3410  0.9348
   64DMF     H5 1255   1.873   2.233   1.626 -0.5699 -2.5690  1.3790
   64DMF     H6 1256   1.969   2.089   1.592  4.4426  0.9166 -1.9464
   64DMF     H7 1257   1.945   2.430   1.576 -1.0552 -0.8026 -1.1650
   65DMF     C1 1258   0.595   0.185   0.742 -0.3198  0.4157  0.2855
   65DMF     N1 1259   0.522   0.053   0.756 -1.0381 -0.0762 -0.3027
   65DMF     C2 1260   0.510  -0.003   0.891 -0.1421 -0.0620 -0.1219
   65DMF     C3 1261   0.423   0.011   0.663  0.5855  0.0750 -0.5690
   65DMF     O1 1262   0.402   0.068   0.556  0.8833 -0.3371  0.0678
   65DMF     H1 1263   0.646   0.216   0.835 -2.2275  0.6418  1.2866
   65DMF     H2 1264   0.521   0.262   0.718 -2.3090 -2.0329 -1.6851
   65DMF     H3 1265   0.667   0.177   0.660  0.3898 -1.1503  1.0293
   65DMF     H4 1266   0.607  -0.033   0.930  0.5903  0.0004 -1.8647
   65DMF     H5 1267   0.452  -0.096   0.887  0.2474 -0.3829  1.3225
   65DMF     H6 1268   0.461   0.066   0.962 -0.3248 -0.8157  0.4998
   65DMF     H7 1269   0.354  -0.070   0.696 -0.5793  0.8632 -1.0314
   66DMF     C1 1270   3.242   0.158   2.750  0.9018  0.0687  0.4085
   66DMF     N1 1271   3.103   0.106   2.722 -0.1356  0.4695 -0.0488
   66DMF     C2 1272   3.041   0.141   2.592 -0.1289 -0.6973  0.2827
   66DMF     C3 1273   3.029   0.035   2.823  0.2299 -0.7295  0.5096
   66DMF     O1 1274   3.069   0.015   2.935 -0.1748  0.0851  0.2073
   66DMF     H1 1275   3.313   0.088   2.703 -0.6235 -0.2849 -1.4099
   66DMF     H2 1276   3.267   0.180   2.855  0.8991  1.6478  0.0792
   66DMF     H3 1277   3.256   0.253   2.697 -1.0823  0.9081  1.3572
   66DMF     H4 1278   3.105   0.113   2.508  2.4614 -0.2393  2.0352
   66DMF     H5 1279   3.013   0.247   2.602  2.4490 -0.0133  0.5041
   66DMF     H6 1280   2.945   0.088   2.582 -0.8949  0.4562  1.3128
   66DMF     H7 1281   2.931  -0.008   2.793 -0.5360  1.8301 -0.7391
   67DMF     C1 1282   0.073   1.473   1.516  0.3413 -0.0438 -0.2190
   67DMF     N1 1283   0.213   1.484   1.544 -0.5580 -0.0652 -0.3791
   67DMF     C2 1284   0.273   1.613   1.561 -0.2437 -0.0719  0.0966
   67DMF     C3 1285   0.289   1.371   1.573  0.5073  0.0949  0.2790
   67DMF     O1 1286   0.249   1.253   1.573  0.0720 -0.2401 -0.0566
   67DMF     H1 1287   0.038   1.377   1.477 -0.4106  0.6410 -1.2791
   67DMF     H2 1288   0.061   1.554   1.442 -1.7933  0.0131  0.1434
   67DMF     H3 1289   0.004   1.499   1.598 -2.3901  0.6536 -2.6580
   67DMF     H4 1290   0.382   1.608   1.572 -0.4109 -1.2406  1.3283
   67DMF     H5 1291   0.220   1.662   1.644  0.9813  1.4368  0.0137
   67DMF     H6 1292   0.259   1.669   1.467  1.2178  0.6431  0.2985
   67DMF     H7 1293   0.395   1.402   1.586 -0.4379  3.8638 -0.4820
   68DMF     C1 1294   0.950   0.123   3.246 -0.0883  0.3961  0.0816
   68DMF     N1 1295   0.901   0.152   3.386 -0.1988 -0.4429 -0.3608
   68DMF     C2 1296   0.813   0.266   3.403 -0.1317 -0.4904  0.3686
   68DMF     C3 1297   0.941   0.082   3.503 -0.5628  0.4416  0.0398
   68DMF     O1 1298   1.025  -0.004   3.483  0.2677 -0.2543 -0.0660
   68DMF     H1 1299   0.875   0.070   3.186 -1.4370  1.4181  0.8586
   68DMF     H2 1300   1.038   0.057   3.252  0.4021  1.0191 -0.2341
   68DMF     H3 1301   0.964   0.217   3.192 -1.0730 -0.3491 -1.5085
   68DMF     H4 1302   0.845   0.332   3.484  0.4152 -0.3772  0.0628
   68DMF     H5 1303   0.708   0.235   3.409 -0.5485  0.4163 -1.7331
   68DMF     H6 1304   0.815   0.327   3.312  0.4807 -0.2320  0.5536
   68DMF     H7 1305   0.888   0.105   3.597  1.9640  0.0216  1.6141
   69DMF     C1 1306   3.308   0.258   0.126 -0.6933  0.1577 -0.0252
   69DMF     N1 1307   3.197   0.225   0.042 -0.4059  0.1537  0.3610
   69DMF     C2 1308   3.226   0.156  -0.085 -0.4295  0.3907 -0.5993
   69DMF     C3 1309   3.073   0.208   0.097  0.3684 -0.4694  0.0137
   69DMF     O1 1310   3.044   0.244   0.211  0.5167 -0.2472  0.4838
   69DMF     H1 1311   3.403   0.248   0.071 -1.2113  0.1990 -0.9326
   69DMF     H2 1312   3.311   0.186   0.209 -0.0536  0.8703  0.5796
   69DMF     H3 1313   3.297   0.359   0.168  0.1001 -0.1563  0.9719
   69DMF     H4 1314   3.245   0.049  -0.074  1.4225  0.7714  0.1074
   69DMF     H5 1315   3.314   0.205  -0.129  0.0707 -0.0781 -0.1417
   69DMF     H6 1316   3.142   0.160  -0.156 -0.5554  1.6979 -0.4040
   69DMF     H7 1317   3.003   0.169   0.020 -1.8538 -0.1963  1.8500
   70DMF     C1 1318   3.230   1.509   3.687  0.2944  0.5671 -1.1452
   70DMF     N1 1319   3.267   1.652   3.671  0.3494  0.5206 -0.3492
   70DMF     C2 1320   3.218   1.747   3.768 -0.1250  0.2168  0.2081
   70DMF     C3 1321   3.340   1.702   3.559 -0.4241 -0.2126 -0.2109
   70DMF     O1 1322   3.396   1.632   3.475 -0.2471 -0.2516  0.2412
   70DMF     H1 1323   3.120   1.513   3.679  0.1368  0.0960  0.5303
   70DMF     H2 1324   3.257   1.477   3.789  1.7673  1.2587 -1.3097
   70DMF     H3 1325   3.272   1.443   3.611 -2.3846 -0.2877 -1.9608
   70DMF     H4 1326   3.222   1.690   3.862  0.6208 -1.0100 -0.5553
   70DMF     H5 1327   3.119   1.787   3.742 -1.2368 -0.3242  3.3555
   70DMF     H6 1328   3.289   1.830   3.779  1.8216 -1.4959  0.8145
   70DMF     H7 1329   3.333   1.812   3.556  2.7052  0.0690  0.9265
   71DMF     C1 1330   3.084   2.863   1.321  0.3229 -0.5202 -0.6769
   71DMF     N1 1331   3.016   2.816   1.197  0.2914  0.5308 -0.2363
   71DMF     C2 1332   2.876   2.785   1.199 -0.2825 -0.3515 -0.6237
   71DMF     C3 1333   3.092   2.785   1.080 -0.3702 -0.3712 -0.1427
   71DMF     O1 1334   3.212   2.794   1.071  0.1065  0.2659  0.4771
   71DMF     H1 1335   3.019   2.858   1.409  0.6205 -2.3705 -0.5346
   71DMF     H2 1336   3.118   2.966   1.305  2.4756 -1.2282 -0.7607
   71DMF     H3 1337   3.177   2.810   1.345  0.2460 -0.1142  0.5253
   71DMF     H4 1338   2.836   2.821   1.103 -3.4787 -0.8226  0.4742
   71DMF     H5 1339   2.841   2.849   1.281  3.6764  0.7421  0.3335
   71DMF     H6 1340   2.852   2.679   1.214 -0.1660 -0.1428  1.1427
   71DMF     H7 1341   3.029   2.750   0.996  0.9280 -1.1254 -0.8133
   72DMF     C1 1342   1.407   1.118   1.366  0.6486 -0.1127 -0.4096
   72DMF     N1 1343   1.398   1.053   1.501 -0.8659 -0.5550  0.3481
   72DMF     C2 1344   1.528   1.009   1.558  0.4755 -0.8021 -0.2087
   72DMF     C3 1345   1.276   1.007   1.556 -0.0454 -0.2280 -0.0160
   72DMF     O1 1346   1.158   1.033   1.518  0.3987  0.8214 -0.4031
   72DMF     H1 1347   1.468   1.209   1.380 -0.4268  0.9706 -2.3890
   72DMF     H2 1348   1.305   1.148   1.337 -0.5736 -0.9358  2.8392
   72DMF     H3 1349   1.449   1.044   1.298  3.0818 -1.9517  2.9635
   72DMF     H4 1350   1.584   1.082   1.619  0.5853  0.8511 -2.2317
   72DMF     H5 1351   1.592   0.966   1.480  1.2182 -0.5668  0.2597
   72DMF     H6 1352   1.513   0.930   1.632  2.1244 -0.4273  0.5512
   72DMF     H7 1353   1.292   0.956   1.653  1.6510 -2.0970 -1.2523
   73DMF     C1 1354   0.460   1.484   0.607 -0.1246 -0.6910  0.4471
   73DMF     N1 1355   0.540   1.489   0.730 -0.0565 -0.1610 -0.1721
   73DMF     C2 1356   0.669   1.550   0.726  0.1662 -0.8936  0.4675
   73DMF     C3 1357   0.497   1.454   0.854  0.9129  0.3393 -0.2651
   73DMF     O1 1358   0.379   1.415   0.877 -0.1801  0.4338  0.4048
   73DMF     H1 1359   0.382   1.410   0.622  0.6779 -1.5650  0.3526
   73DMF     H2 1360   0.517   1.453   0.518 -1.3073  0.2108 -0.6607
   73DMF     H3 1361   0.412   1.581   0.590  1.1301 -0.1423 -0.0509
   73DMF     H4 1362   0.691   1.603   0.820 -0.8506  0.6973 -0.1696
   73DMF     H5 1363   0.668   1.620   0.642 -2.4712 -0.2160  1.0022
   73DMF     H6 1364   0.740   1.468   0.713 -0.2756 -1.2398  0.2312
   73DMF     H7 1365   0.570   1.469   0.935  0.6896  0.6801 -0.1274
   74DMF     C1 1366   0.310   0.070   1.495  0.2491  0.4745  0.6880
   74DMF     N1 1367   0.407   0.155   1.430 -0.1806 -0.3136  0.3329
   74DMF     C2 1368   0.479   0.250   1.512  0.1373  0.2469 -0.7953
   74DMF     C3 1369   0.409   0.167   1.293 -0.1118  0.1863  0.5723
   74DMF     O1 1370   0.333   0.107   1.217 -0.3517 -0.6750 -0.6492
   74DMF     H1 1371   0.345   0.037   1.593 -0.5552 -2.2169  0.0922
   74DMF     H2 1372   0.276  -0.014   1.433  1.0938 -0.1891  1.1151
   74DMF     H3 1373   0.225   0.134   1.523 -0.4645 -0.7608  1.3402
   74DMF     H4 1374   0.426   0.263   1.607  0.6425  1.2634 -0.6478
   74DMF     H5 1375   0.475   0.352   1.474 -0.9686  0.2764 -0.6199
   74DMF     H6 1376   0.582   0.217   1.534 -0.2861 -2.0173 -2.0967
   74DMF     H7 1377   0.488   0.234   1.254 -0.5833 -0.1829 -1.0580
   75DMF     C1 1378   2.204   0.272   2.341  0.1431 -0.0889 -0.5929
   75DMF     N1 1379   2.314   0.349   2.276 -0.0055  0.4348 -0.4189
   75DMF     C2 1380   2.434   0.271   2.229  0.6363  0.1228 -0.2433
   75DMF     C3 1381   2.304   0.489   2.271  0.0227 -0.0892  0.2925
   75DMF     O1 1382   2.201   0.542   2.300  0.2410 -0.3375  0.5269
   75DMF     H1 1383   2.107   0.296   2.295 -0.2777  0.7394  0.7203
   75DMF     H2 1384   2.194   0.266   2.450  0.5990  1.2671 -0.4652
   75DMF     H3 1385   2.232   0.176   2.297 -1.4432 -0.1786 -1.4498
   75DMF     H4 1386   2.486   0.233   2.318  0.3696  0.0384 -0.1236
   75DMF     H5 1387   2.508   0.337   2.181  0.3517  0.7499  0.1675
   75DMF     H6 1388   2.414   0.189   2.160  0.6792  0.5115 -0.7216
   75DMF     H7 1389   2.396   0.538   2.234  0.2271 -0.4738  0.2876
   76DMF     C1 1390   0.975   3.303   0.377  0.5788 -0.4515 -0.4592
   76DMF     N1 1391   0.935   3.433   0.430  0.4810 -0.4439 -0.6373
   76DMF     C2 1392   0.808   3.493   0.377  0.2758 -0.8083  0.0374
   76DMF     C3 1393   1.028   3.511   0.494  0.7880  0.0228  0.0737
   76DMF     O1 1394   1.138   3.477   0.518 -0.2958 -0.5166 -0.8370
   76DMF     H1 1395   1.017   3.316   0.277  1.3855 -4.6193 -0.7710
   76DMF     H2 1396   0.895   3.228   0.369 -1.0636  1.1776  0.4418
   76DMF     H3 1397   1.051   3.254   0.439  0.6559 -1.1236 -1.0676
   76DMF     H4 1398   0.719   3.442   0.415  0.1600 -0.7854 -0.2056
   76DMF     H5 1399   0.802   3.486   0.268 -1.6322  0.5902  0.0137
   76DMF     H6 1400   0.792   3.597   0.409 -0.9329 -1.1102  0.4537
   76DMF     H7 1401   1.005   3.619   0.505 -0.6032 -0.5104  2.8741
   77DMF     C1 1402   0.332   1.050   2.361  0.3649 -0.0059  0.4523
   77DMF     N1 1403   0.396   1.189   2.359 -0.0963  0.3152  0.1956
   77DMF     C2 1404   0.472   1.224   2.238  0.0638 -0.5784  0.2460
   77DMF     C3 1405   0.396   1.276   2.472 -0.2126 -0.4588  0.7005
   77DMF     O1 1406   0.339   1.253   2.577 -0.1793  0.3475  0.2236
   77DMF     H1 1407   0.286   1.016   2.268  1.4253 -0.0041 -0.0778
   77DMF     H2 1408   0.261   1.057   2.444 -0.8009 -0.9901 -0.4625
   77DMF     H3 1409   0.404   0.972   2.388  3.2705  1.8597 -1.5933
   77DMF     H4 1410   0.477   1.131   2.180  2.2320 -0.0404 -0.4659
   77DMF     H5 1411   0.571   1.267   2.260  1.1335 -1.1536 -3.1630
   77DMF     H6 1412   0.423   1.302   2.178 -1.8741 -1.8055  0.1729
   77DMF     H7 1413   0.451   1.371   2.457 -1.8528  0.3063 -0.6281
   78DMF     C1 1414   0.520   2.281   0.626 -0.1983  0.1861  0.5132
   78DMF     N1 1415   0.595   2.316   0.748  0.1127 -0.6231 -0.3242
   78DMF     C2 1416   0.743   2.335   0.738  0.2235  0.1208  0.1732
   78DMF     C3 1417   0.534   2.335   0.869 -0.3228 -0.5591 -0.0317
   78DMF     O1 1418   0.416   2.321   0.894  0.0270 -0.0336  0.3439
   78DMF     H1 1419   0.422   2.331   0.619 -0.5958 -0.3352  2.1693
   78DMF     H2 1420   0.497   2.173   0.625  2.2315 -0.3714  1.8845
   78DMF     H3 1421   0.587   2.299   0.541 -1.3192  0.9353 -0.2226
   78DMF     H4 1422   0.757   2.440   0.709 -2.0935 -0.1309 -2.0125
   78DMF     H5 1423   0.778   2.259   0.667 -2.2753  0.2593 -1.2795
   78DMF     H6 1424   0.793   2.315   0.833 -1.4468 -1.9423  0.6625
   78DMF     H7 1425   0.613   2.355   0.944 -0.5418 -0.8031  0.2671
   79DMF     C1 1426   0.549   1.411   0.169  0.1917 -0.4651  0.7169
   79DMF     N1 1427   0.604   1.528   0.236  0.1603  0.4984  0.0990
   79DMF     C2 1428   0.567   1.660   0.192 -0.1452  0.5908  0.1730
   79DMF     C3 1429   0.720   1.508   0.321  0.8564  0.1065  0.5183
   79DMF     O1 1430   0.765   1.399   0.339 -0.1274 -0.3790 -0.0444
   79DMF     H1 1431   0.584   1.318   0.215 -0.4836 -0.7707  0.6124
   79DMF     H2 1432   0.582   1.411   0.064 -0.2485 -1.7127  0.5719
   79DMF     H3 1433   0.441   1.421   0.178  0.3572 -0.6485  3.2339
   79DMF     H4 1434   0.476   1.658   0.130 -0.8708  0.4474  1.2463
   79DMF     H5 1435   0.648   1.681   0.120 -1.4384 -0.3805 -1.6186
   79DMF     H6 1436   0.551   1.736   0.270  1.7706  0.5236  0.6706
   79DMF     H7 1437   0.761   1.604   0.358  0.0032  0.9423 -0.6499
   80DMF     C1 1438   1.290   0.242   3.055 -0.6495  0.3639  0.2907
   80DMF     N1 1439   1.237   0.135   2.972  0.0290 -0.8815 -0.1259
   80DMF     C2 1440   1.319   0.007   2.951 -0.4267  0.2119  0.0668
   80DMF     C3 1441   1.111   0.148   2.919 -0.0413  0.1170  0.1687
   80DMF     O1 1442   1.018   0.229   2.957 -0.0863  0.4402 -0.0353
   80DMF     H1 1443   1.212   0.318   3.066 -0.1602  0.7347  1.2900
   80DMF     H2 1444   1.377   0.297   3.019  0.9206 -0.7650  2.2100
   80DMF     H3 1445   1.301   0.213   3.161  2.8214 -1.6757 -0.5477
   80DMF     H4 1446   1.336  -0.046   3.046 -0.1802 -2.1664 -1.2863
   80DMF     H5 1447   1.418   0.039   2.916  0.5751  0.7200  3.1783
   80DMF     H6 1448   1.265  -0.058   2.882 -0.4157  0.1700  0.0976
   80DMF     H7 1449   1.098   0.062   2.851  2.4887 -1.3158  1.4401
   81DMF     C1 1450   3.146   2.078   3.588 -0.1191 -0.8529 -0.2185
   81DMF     N1 1451   3.021   2.143   3.547 -0.1741 -0.0450  0.5169
   81DMF     C2 1452   3.043   2.244   3.435 -0.0923 -0.0874 -0.1348
   81DMF     C3 1453   2.901   2.147   3.624  0.5554 -0.4145  0.3564
   81DMF     O1 1454   2.879   2.073   3.719  0.3742 -0.1676  0.1142
   81DMF     H1 1455   3.221   2.150   3.620 -1.3425 -0.1612  1.1513
   81DMF     H2 1456   3.190   2.016   3.509 -0.9753 -1.2792 -0.3734
   81DMF     H3 1457   3.126   2.002   3.664  2.4163 -0.7668  0.5609
   81DMF     H4 1458   3.140   2.218   3.391 -0.4447 -1.4138 -0.1505
   81DMF     H5 1459   3.059   2.343   3.479  3.1698 -1.0337  0.9489
   81DMF     H6 1460   2.966   2.237   3.358 -0.0148 -2.1885 -0.0423
   81DMF     H7 1461   2.832   2.225   3.586  0.4728 -0.6529  0.0131
   82DMF     C1 1462   3.160   1.653   1.544  0.7728  0.1372 -0.5729
   82DMF     N1 1463   3.015   1.678   1.547  0.6410  0.3219 -0.5879
   82DMF     C2 1464   2.968   1.820   1.533  0.2964  0.1978 -0.3651
   82DMF     C3 1465   2.924   1.566   1.535  1.0910  0.1984  0.3147
   82DMF     O1 1466   2.953   1.450   1.554  0.4746 -0.3296 -0.6788
   82DMF     H1 1467   3.178   1.558   1.595 -0.5699  0.6499  0.8889
   82DMF     H2 1468   3.209   1.728   1.608  0.3942  0.0286 -0.1523
   82DMF     H3 1469   3.195   1.657   1.440 -1.1665  0.8681 -1.2175
   82DMF     H4 1470   2.912   1.840   1.440  0.2764  1.3968 -0.0970
   82DMF     H5 1471   3.051   1.890   1.517  0.6510  0.0061  0.6312
   82DMF     H6 1472   2.916   1.849   1.625 -2.0860 -2.0243 -0.9400
   82DMF     H7 1473   2.820   1.592   1.506  1.3861  0.0417 -0.9144
   83DMF     C1 1474   3.120   2.762   0.580  0.8273  0.4640 -0.3437
   83DMF     N1 1475   3.013   2.865   0.537  0.3843  0.6197 -0.3755
   83DMF     C2 1476   2.894   2.889   0.624  0.1346 -0.1962  0.5659
   83DMF     C3 1477   3.031   2.924   0.411  0.3497 -0.2114 -0.0767
   83DMF     O1 1478   3.122   2.901   0.338 -0.1968 -0.2273 -0.4782
   83DMF     H1 1479   3.095   2.710   0.673 -0.0798  1.4425 -0.0213
   83DMF     H2 1480   3.219   2.811   0.587  2.8574 -3.1662 -2.2928
   83DMF     H3 1481   3.132   2.689   0.500 -2.1402 -0.8519  0.3769
   83DMF     H4 1482   2.932   2.877   0.727 -1.1446  0.0610  1.0726
   83DMF     H5 1483   2.827   2.803   0.614  1.1396 -0.8112 -1.0557
   83DMF     H6 1484   2.848   2.985   0.602  0.0029 -0.2045  0.7989
   83DMF     H7 1485   2.955   3.003   0.396 -0.1132 -0.6594 -0.1033
   84DMF     C1 1486   1.670   1.845   1.097 -0.2973  1.0940 -0.1333
   84DMF     N1 1487   1.783   1.780   1.033 -0.6871  0.6358  0.0066
   84DMF     C2 1488   1.863   1.694   1.110 -0.9649  0.4015  0.0081
   84DMF     C3 1489   1.808   1.791   0.897 -0.3237  0.2975  0.5884
   84DMF     O1 1490   1.725   1.856   0.833  0.1225  0.1309  1.2577
   84DMF     H1 1491   1.622   1.777   1.168  1.0172  0.1665 -0.1082
   84DMF     H2 1492   1.592   1.876   1.026  0.1871 -1.3100 -1.7513
   84DMF     H3 1493   1.715   1.932   1.147 -0.3969  0.1634  1.6057
   84DMF     H4 1494   1.965   1.689   1.070 -1.3777  1.9060 -1.3024
   84DMF     H5 1495   1.821   1.593   1.118  0.9425 -0.4963 -0.9511
   84DMF     H6 1496   1.859   1.734   1.212  0.4262 -0.5345  0.4363
   84DMF     H7 1497   1.902   1.749   0.855  0.7054  4.5662 -1.7258
   85DMF     C1 1498   3.166   1.794   2.786  0.2672 -0.2962  0.0604
   85DMF     N1 1499   3.192   1.943   2.763 -0.2828 -0.1400  0.4763
   85DMF     C2 1500   3.082   2.023   2.710  0.3576 -0.2777  0.0648
   85DMF     C3 1501   3.312   2.002   2.802 -0.7226 -0.5129  0.0617
   85DMF     O1 1502   3.399   1.943   2.861 -0.2616  0.0239 -0.3764
   85DMF     H1 1503   3.104   1.767   2.872  0.2357 -1.2556 -0.2612
   85DMF     H2 1504   3.262   1.741   2.801  0.4671 -0.1724 -0.7498
   85DMF     H3 1505   3.117   1.749   2.699 -0.7041 -1.8213  1.3706
   85DMF     H4 1506   3.105   2.052   2.606  0.5509 -0.5133  0.0427
   85DMF     H5 1507   3.072   2.110   2.776  0.7548 -1.4783  1.7097
   85DMF     H6 1508   2.987   1.969   2.714 -1.7331  3.2221  0.3730
   85DMF     H7 1509   3.302   2.112   2.794 -3.7559 -0.6309  1.6737
   86DMF     C1 1510   0.120   1.405   0.076 -0.0054 -0.4696 -0.1502
   86DMF     N1 1511   0.150   1.535   0.018 -0.4731 -0.2511 -0.0980
   86DMF     C2 1512   0.216   1.537  -0.114  0.4947 -0.3262  0.0990
   86DMF     C3 1513   0.134   1.657   0.086  0.5183  0.1111  0.1648
   86DMF     O1 1514   0.108   1.668   0.208 -0.9739  0.2220  0.3074
   86DMF     H1 1515   0.177   1.388   0.168  1.6046  1.2369 -0.7948
   86DMF     H2 1516   0.139   1.322   0.007  2.6002 -0.3957  0.4040
   86DMF     H3 1517   0.012   1.403   0.094 -0.2266 -0.3938 -1.4367
   86DMF     H4 1518   0.153   1.509  -0.199  0.4375  0.3600 -0.0844
   86DMF     H5 1519   0.296   1.462  -0.120  2.2897  1.6232 -1.0277
   86DMF     H6 1520   0.275   1.628  -0.132  2.2870 -1.6329 -0.7760
   86DMF     H7 1521   0.159   1.740   0.018  1.0170  0.0264  0.2398
   87DMF     C1 1522   2.816   3.056   0.046 -0.5768  0.1328  0.1445
   87DMF     N1 1523   2.957   3.044   0.012  0.1595 -0.3570  0.0549
   87DMF     C2 1524   3.019   2.910   0.026 -0.0515 -0.2057  0.4369
   87DMF     C3 1525   3.039   3.157   0.022 -0.1809  0.6063  0.2485
   87DMF     O1 1526   2.990   3.263   0.049 -0.6580 -0.0157 -0.0856
   87DMF     H1 1527   2.754   3.036  -0.042  1.6471  1.3456 -1.7635
   87DMF     H2 1528   2.786   3.154   0.083 -2.5384 -0.3767 -0.0684
   87DMF     H3 1529   2.801   2.991   0.133 -0.0939  1.9633  1.6120
   87DMF     H4 1530   3.035   2.872   0.128 -1.5623 -2.9264 -0.2865
   87DMF     H5 1531   3.117   2.906  -0.021  0.5354 -0.1308  1.6283
   87DMF     H6 1532   2.949   2.837  -0.016  1.1898 -0.5478 -1.0622
   87DMF     H7 1533   3.147   3.139   0.006 -0.0815  1.5624 -0.2058
   88DMF     C1 1534   0.075   0.385   1.545  0.4362  0.2124  0.1759
   88DMF     N1 1535  -0.030   0.489   1.568 -0.1496 -0.2181  0.6497
   88DMF     C2 1536   0.001   0.636   1.558 -1.3399  0.7947 -0.3414
   88DMF     C3 1537  -0.161   0.458   1.580  0.3479  0.0833  0.1508
   88DMF     O1 1538  -0.193   0.345   1.574  0.3006  0.0296 -0.2615
   88DMF     H1 1539   0.170   0.432   1.517  0.4791  0.1332  0.1887
   88DMF     H2 1540   0.041   0.314   1.470  0.5574  2.2062 -1.8120
   88DMF     H3 1541   0.088   0.340   1.644 -0.1796  1.6111  0.9087
   88DMF     H4 1542   0.108   0.638   1.585 -1.4130 -1.6692  0.2201
   88DMF     H5 1543  -0.057   0.688   1.635  1.5956  0.5711  2.1332
   88DMF     H6 1544  -0.013   0.684   1.460  1.4845  1.2222 -0.5988
   88DMF     H7 1545  -0.220   0.551   1.590 -0.6011 -0.6001  1.0040
   89DMF     C1 1546   0.828   1.603   3.702 -0.3071 -0.0639  0.6877
   89DMF     N1 1547   0.781   1.688   3.580 -0.2184  0.3106  0.5936
   89DMF     C2 1548   0.876   1.727   3.472  0.5098 -0.5948 -0.5905
   89DMF     C3 1549   0.649   1.732   3.564 -0.4313 -0.3666 -0.2680
   89DMF     O1 1550   0.559   1.715   3.651 -0.7239 -0.2843  0.1298
   89DMF     H1 1551   0.742   1.536   3.717 -0.7335  0.3655  0.2305
   89DMF     H2 1552   0.842   1.662   3.793  0.7352 -0.3864  0.7335
   89DMF     H3 1553   0.909   1.540   3.665 -0.6564  1.5865 -3.1638
   89DMF     H4 1554   0.950   1.649   3.449  0.0515 -0.4787 -2.5089
   89DMF     H5 1555   0.932   1.812   3.513  0.8067 -1.4566  0.8444
   89DMF     H6 1556   0.823   1.768   3.386 -2.4332 -0.0256  1.4340
   89DMF     H7 1557   0.628   1.776   3.465  2.4508  1.5533 -0.0686
   90DMF     C1 1558   1.133   2.116   0.864  0.1681 -0.1860  0.3684
   90DMF     N1 1559   1.196   2.014   0.947  0.2086  0.2290  0.1421
   90DMF     C2 1560   1.260   2.063   1.071  0.4440 -0.0729 -0.4678
   90DMF     C3 1561   1.223   1.890   0.900  0.9239 -0.8446 -0.3604
   90DMF     O1 1562   1.178   1.842   0.798  0.5508 -0.0434 -0.2746
   90DMF     H1 1563   1.043   2.085   0.809  1.0627  0.6030 -1.5830
   90DMF     H2 1564   1.205   2.139   0.785 -0.4552  0.8185  0.0732
   90DMF     H3 1565   1.118   2.211   0.916 -1.0997 -0.8247  1.2178
   90DMF     H4 1566   1.196   2.142   1.114 -1.3145 -1.3471 -0.7117
   90DMF     H5 1567   1.363   2.095   1.050  0.8701 -0.2657  1.2661
   90DMF     H6 1568   1.264   1.980   1.142  2.8511 -0.9177 -1.5025
   90DMF     H7 1569   1.280   1.826   0.971  1.5112  1.0315  0.8968
   91DMF     C1 1570   2.863   1.585   2.857  0.9408 -0.3370  0.1432
   91DMF     N1 1571   2.903   1.450   2.903 -0.1474  0.4956 -0.2319
   91DMF     C2 1572   2.791   1.359   2.939  0.4832  0.0076  0.1528
   91DMF     C3 1573   3.028   1.433   2.963  0.2917  0.5722 -0.2414
   91DMF     O1 1574   3.111   1.520   2.959 -0.0512  0.3897 -0.3131
   91DMF     H1 1575   2.756   1.607   2.847  1.0361 -0.1007 -0.3868
   91DMF     H2 1576   2.922   1.609   2.768  1.5672  1.1531  0.9462
   91DMF     H3 1577   2.895   1.661   2.929  0.3245  2.5928 -2.5462
   91DMF     H4 1578   2.714   1.371   2.862  2.2658  1.4061 -1.4900
   91DMF     H5 1579   2.745   1.386   3.034  0.3987  3.4943 -0.7880
   91DMF     H6 1580   2.826   1.256   2.954  0.7356 -0.0962 -1.0476
   91DMF     H7 1581   3.032   1.330   3.002 -1.4570  0.6521  0.1921
   92DMF     C1 1582   3.300   2.428   0.832 -0.6652 -0.3125  0.2677
   92DMF     N1 1583   3.408   2.463   0.749  0.2461 -0.5199  0.0879
   92DMF     C2 1584   3.547   2.466   0.813 -0.3261  0.2871 -0.0978
   92DMF     C3 1585   3.398   2.501   0.615  0.2845 -0.1243 -0.3687
   92DMF     O1 1586   3.294   2.503   0.560  0.3822 -0.0757 -0.5223
   92DMF     H1 1587   3.288   2.496   0.917 -2.5056 -1.6693  1.1278
   92DMF     H2 1588   3.300   2.322   0.862 -2.2545 -0.1467  0.9211
   92DMF     H3 1589   3.209   2.428   0.771  1.0469 -1.7215 -2.3683
   92DMF     H4 1590   3.627   2.459   0.738  0.3489 -0.0315  0.6407
   92DMF     H5 1591   3.558   2.379   0.879  0.2241  0.6664  0.3205
   92DMF     H6 1592   3.565   2.557   0.871  0.7274 -0.0033  0.0468
   92DMF     H7 1593   3.491   2.528   0.562  0.2736 -0.3819 -0.5190
   93DMF     C1 1594   2.519   2.839   0.282  0.6256 -0.0617  0.4228
   93DMF     N1 1595   2.600   2.721   0.244 -0.2332 -0.0325  0.4496
   93DMF     C2 1596   2.662   2.645   0.352  0.2560 -0.6717  0.0966
   93DMF     C3 1597   2.655   2.701   0.113  0.4129 -0.1728 -0.4843
   93DMF     O1 1598   2.632   2.776   0.023  0.2681 -0.2581  0.1580
   93DMF     H1 1599   2.576   2.928   0.312 -0.3723  0.3896  0.9694
   93DMF     H2 1600   2.447   2.813   0.360  2.0053 -0.4147  1.6027
   93DMF     H3 1601   2.459   2.874   0.198  0.7420  3.1531  1.6261
   93DMF     H4 1602   2.758   2.689   0.384 -0.4432 -0.0219  1.3311
   93DMF     H5 1603   2.663   2.539   0.324 -1.0903 -0.9284  0.9729
   93DMF     H6 1604   2.592   2.638   0.436  0.4937 -1.5907  0.2314
   93DMF     H7 1605   2.725   2.615   0.115 -0.2989 -0.7538 -0.3067
   94DMF     C1 1606   1.340   1.964   1.540 -0.1493  0.2703  0.1679
   94DMF     N1 1607   1.429   2.073   1.484  0.7355  0.3632  0.3704
   94DMF     C2 1608   1.360   2.200   1.455 -0.0604 -0.4594  0.2289
   94DMF     C3 1609   1.566   2.075   1.500  0.3107 -0.1958  0.1344
   94DMF     O1 1610   1.623   1.972   1.520 -0.0246 -0.3752 -0.1918
   94DMF     H1 1611   1.307   1.897   1.459 -2.7020 -0.3794  1.7018
   94DMF     H2 1612   1.260   2.006   1.602  0.1218  0.2916  0.5000
   94DMF     H3 1613   1.386   1.906   1.620 -0.1946  0.3382  0.2436
   94DMF     H4 1614   1.252   2.186   1.455  0.0516 -1.4001 -0.3352
   94DMF     H5 1615   1.386   2.238   1.355 -0.3141  1.2649  0.8041
   94DMF     H6 1616   1.395   2.276   1.525  1.1789 -0.7462 -0.0545
   94DMF     H7 1617   1.614   2.172   1.477 -0.8855  0.3277 -0.1930
   95DMF     C1 1618   2.779   3.296   3.580  0.2294 -0.4092 -0.3036
   95DMF     N1 1619   2.670   3.214   3.530 -0.0054 -0.3581  0.2422
   95DMF     C2 1620   2.699   3.071   3.483 -0.0954 -0.4856 -0.7581
   95DMF     C3 1621   2.553   3.271   3.477 -0.0449  0.8506  0.1771
   95DMF     O1 1622   2.537   3.389   3.486 -0.1407  0.3350  0.1983
   95DMF     H1 1623   2.861   3.226   3.603 -1.1429 -1.6765  0.8211
   95DMF     H2 1624   2.749   3.343   3.675  2.1603 -0.0123  0.1371
   95DMF     H3 1625   2.816   3.353   3.494  1.5088  0.4630  0.7994
   95DMF     H4 1626   2.631   3.034   3.405 -1.1201 -0.1810 -0.0141
   95DMF     H5 1627   2.704   2.999   3.565 -1.1451 -0.3939 -0.6029
   95DMF     H6 1628   2.800   3.067   3.441  0.4860  1.8061  0.3603
   95DMF     H7 1629   2.488   3.204   3.418 -0.4125  0.1183  1.3767
   96DMF     C1 1630   3.146   2.162   3.118  0.3591 -0.2169 -0.1923
   96DMF     N1 1631   3.284   2.129   3.126  0.2191  0.8739 -0.9400
   96DMF     C2 1632   3.322   2.016   3.209 -0.0507 -0.1334 -0.0126
   96DMF     C3 1633   3.381   2.193   3.047  0.1124 -0.4931  0.0531
   96DMF     O1 1634   3.349   2.290   2.973  0.6235  0.5832 -0.8259
   96DMF     H1 1635   3.086   2.108   3.192  0.3655 -0.2776 -0.2318
   96DMF     H2 1636   3.111   2.140   3.017 -1.2213  1.1604  0.0343
   96DMF     H3 1637   3.135   2.268   3.144 -1.1573 -0.6986  1.2304
   96DMF     H4 1638   3.331   1.928   3.145  1.8425 -0.0272  0.0889
   96DMF     H5 1639   3.247   1.999   3.288 -0.3650 -0.0027 -0.2786
   96DMF     H6 1640   3.414   2.045   3.261  0.4427  1.6800 -1.8392
   96DMF     H7 1641   3.482   2.148   3.052  0.0322 -0.6217  0.6040
   97DMF     C1 1642   0.601   1.869   0.511  0.1801 -0.3876  0.3887
   97DMF     N1 1643   0.750   1.897   0.501 -0.4425 -0.0024 -0.4183
   97DMF     C2 1644   0.833   1.905   0.627 -0.1689 -0.7028 -0.5818
   97DMF     C3 1645   0.816   1.884   0.378 -0.4826 -0.0948 -0.1068
   97DMF     O1 1646   0.757   1.891   0.272  0.3322  0.4096  0.5613
   97DMF     H1 1647   0.546   1.906   0.423  2.1127 -1.3520 -1.2740
   97DMF     H2 1648   0.572   1.926   0.600  0.1917  2.9199 -1.6274
   97DMF     H3 1649   0.583   1.761   0.511  0.8838 -0.5298  2.5521
   97DMF     H4 1650   0.876   2.006   0.631 -2.0352  0.1001 -0.3180
   97DMF     H5 1651   0.915   1.834   0.611  2.1108  1.5217  0.9046
   97DMF     H6 1652   0.781   1.879   0.721  0.7698  3.0895  1.0888
   97DMF     H7 1653   0.925   1.881   0.397 -0.6687 -1.1069  0.8308
   98DMF     C1 1654   2.722   0.497   1.056 -0.5314  0.2016 -0.1678
   98DMF     N1 1655   2.634   0.581   1.139  0.3436  0.7555  0.3419
   98DMF     C2 1656   2.491   0.600   1.102  0.5712  0.4203  1.0204
   98DMF     C3 1657   2.695   0.669   1.235  0.2565  0.1166  0.1416
   98DMF     O1 1658   2.817   0.676   1.261  0.3104  0.6583 -0.0169
   98DMF     H1 1659   2.738   0.561   0.969 -2.0205  1.7514  0.6599
   98DMF     H2 1660   2.676   0.400   1.032 -0.5349  0.3375 -0.7129
   98DMF     H3 1661   2.808   0.478   1.122 -1.4133 -0.5788  0.7784
   98DMF     H4 1662   2.446   0.502   1.085  0.5268  0.4940  0.7082
   98DMF     H5 1663   2.477   0.657   1.009  0.4607 -1.5639 -0.2154
   98DMF     H6 1664   2.439   0.645   1.187 -1.4300  0.8752 -0.4070
   98DMF     H7 1665   2.617   0.731   1.282 -0.7703 -0.1604 -1.1702
   99DMF     C1 1666   3.002   2.560   0.248 -0.0924 -0.1908  0.7701
   99DMF     N1 1667   3.082   2.551   0.128  0.1982 -0.5121  0.3048
   99DMF     C2 1668   3.211   2.621   0.123  0.1725 -0.7590 -0.4195
   99DMF     C3 1669   3.023   2.505   0.014 -0.4264  0.6570  0.2129
   99DMF     O1 1670   2.921   2.445   0.018 -0.1063  0.5702  0.1280
   99DMF     H1 1671   2.896   2.546   0.227  0.0102 -2.7706  1.8496
   99DMF     H2 1672   3.022   2.648   0.311  2.3491 -0.1889  0.0619
   99DMF     H3 1673   3.036   2.478   0.312  0.1871  0.8324  1.9511
   99DMF     H4 1674   3.238   2.667   0.219 -2.5253 -1.7936  0.9002
   99DMF     H5 1675   3.208   2.695   0.043  2.9307  0.7360  0.7688
   99DMF     H6 1676   3.285   2.542   0.105  1.0717 -0.0636  0.2151
   99DMF     H7 1677   3.072   2.522  -0.084 -0.4829 -0.9063 -0.1020
  100DMF     C1 1678   0.299   2.166   2.813 -0.2286  0.4257 -0.1518
  100DMF     N1 1679   0.240   2.289   2.772  0.2445 -0.4114  0.5871
  100DMF     C2 1680   0.254   2.404   2.866 -0.4044 -0.4075 -0.0532
  100DMF     C3 1681   0.142   2.292   2.671 -0.4643  0.1541  0.5659
  100DMF     O1 1682   0.113   2.191   2.615 -0.0113 -0.3006  1.0654
  100DMF     H1 1683   0.305   2.159   2.922 -2.0823  0.6636 -0.0143
  100DMF     H2 1684   0.401   2.150   2.775  0.3804  0.3945  1.4705
  100DMF     H3 1685   0.235   2.083   2.780  0.3193 -0.2940  0.5781
  100DMF     H4 1686   0.346   2.395   2.925 -0.2792  0.0091 -0.1817
  100DMF     H5 1687   0.165   2.410   2.931  1.8353  2.5453  2.9654
  100DMF     H6 1688   0.257   2.499   2.812 -0.1324 -1.4889 -1.9590
  100DMF     H7 1689   0.103   2.393   2.648  2.8467  1.2563 -0.5207
  101DMF     C1 1690   2.627   0.509   0.305  0.4704  0.6816 -0.4681
  101DMF     N1 1691   2.745   0.589   0.251 -0.4145  0.1537 -0.1853
  101DMF     C2 1692   2.856   0.518   0.188  0.0022 -0.1183  0.0966
  101DMF     C3 1693   2.719   0.729   0.241 -0.6477  0.2363  0.9811
  101DMF     O1 1694   2.619   0.785   0.288 -0.5821  0.0766 -0.1616
  101DMF     H1 1695   2.671   0.409   0.315 -1.3422  0.0938  2.0501
  101DMF     H2 1696   2.547   0.503   0.230  0.9520 -4.4024 -0.7633
  101DMF     H3 1697   2.590   0.538   0.403  0.2017 -0.1040 -0.3341
  101DMF     H4 1698   2.867   0.547   0.083 -3.2038 -0.8208 -0.4908
  101DMF     H5 1699   2.850   0.408   0.195 -0.8846 -0.0455  0.5167
  101DMF     H6 1700   2.951   0.546   0.234  0.8479 -2.7847  0.0977
  101DMF     H7 1701   2.798   0.776   0.180 -0.5607 -2.9962 -1.5423
  102DMF     C1 1702   1.175   2.427   2.298  0.3541  0.2073 -0.2193
  102DMF     N1 1703   1.322   2.441   2.271 -0.0493  0.3467  0.1188
  102DMF     C2 1704   1.407   2.317   2.292 -0.2145 -0.2175 -0.0172
  102DMF     C3 1705   1.380   2.566   2.241 -0.0345  0.1725 -0.5706
  102DMF     O1 1706   1.310   2.665   2.244 -0.2579 -0.2500  0.1790
  102DMF     H1 1707   1.159   2.479   2.394 -1.3276  2.9950 -1.9530
  102DMF     H2 1708   1.138   2.324   2.295  0.7022  0.1023 -0.8171
  102DMF     H3 1709   1.127   2.477   2.214  2.6325  1.5419 -0.7807
  102DMF     H4 1710   1.509   2.343   2.262 -0.2625 -1.1415 -1.0161
  102DMF     H5 1711   1.392   2.236   2.219  2.2768 -1.4465  0.7506
  102DMF     H6 1712   1.403   2.287   2.398 -0.9156  3.2002  0.9760
  102DMF     H7 1713   1.486   2.553   2.210  1.0417  0.1427  2.8942
  103DMF     C1 1714   0.850   2.432   0.389 -0.1510 -0.1289  0.6679
  103DMF     N1 1715   0.946   2.314   0.381 -0.0981 -0.6710  0.8449
  103DMF     C2 1716   0.886   2.180   0.394 -0.2115 -0.2793  0.2032
  103DMF     C3 1717   1.083   2.335   0.369  0.1638 -0.1535  0.1105
  103DMF     O1 1718   1.132   2.451   0.363 -0.2883  0.1101 -0.2699
  103DMF     H1 1719   0.770   2.409   0.460 -0.9854  1.5331  0.3128
  103DMF     H2 1720   0.823   2.452   0.284  3.6640  2.5273  0.0895
  103DMF     H3 1721   0.899   2.522   0.429 -0.9758  0.8496 -0.4569
  103DMF     H4 1722   0.959   2.110   0.435 -0.0212 -0.9281 -1.2447
  103DMF     H5 1723   0.851   2.153   0.294 -2.5663 -2.6975  1.6145
  103DMF     H6 1724   0.799   2.177   0.461 -0.3412  0.8848  0.1066
  103DMF     H7 1725   1.155   2.251   0.375 -0.3377 -0.6304 -0.5494
  104DMF     C1 1726   0.379   2.063   3.631  0.3515 -0.1800  0.0983
  104DMF     N1 1727   0.276   2.050   3.736 -0.0001  0.3648 -0.1325
  104DMF     C2 1728   0.319   2.019   3.869 -0.4977  0.2979 -0.2264
  104DMF     C3 1729   0.144   2.025   3.713 -0.1711 -0.9098 -0.7656
  104DMF     O1 1730   0.098   2.001   3.600 -0.8047  0.3741  0.1382
  104DMF     H1 1731   0.349   2.131   3.550  0.0540 -0.6251 -0.1673
  104DMF     H2 1732   0.395   1.961   3.594  0.6006  0.5006 -1.6829
  104DMF     H3 1733   0.474   2.100   3.671  1.0072  0.3033 -1.8558
  104DMF     H4 1734   0.268   1.930   3.909 -0.7901  0.7409  0.4130
  104DMF     H5 1735   0.287   2.107   3.927  0.3589  0.9536 -0.7350
  104DMF     H6 1736   0.428   2.009   3.874 -0.6432 -0.7433  1.2914
  104DMF     H7 1737   0.087   2.009   3.805  1.6051  1.1341  0.7420
  105DMF     C1 1738   1.573   0.093   1.194 -0.8263 -0.4949  0.6647
  105DMF     N1 1739   1.630   0.219   1.143 -0.2110  0.0163  0.0745
  105DMF     C2 1740   1.544   0.310   1.060  0.3609 -0.1657  0.1259
  105DMF     C3 1741   1.760   0.256   1.170  1.1505 -0.1882 -0.0538
  105DMF     O1 1742   1.819   0.204   1.263 -0.0467 -0.8517  0.1108
  105DMF     H1 1743   1.552   0.089   1.301 -0.5853 -1.3239  0.6852
  105DMF     H2 1744   1.638   0.015   1.152  1.7073  0.3652  2.8113
  105DMF     H3 1745   1.476   0.085   1.143 -0.2190  1.1353 -0.8200
  105DMF     H4 1746   1.497   0.380   1.130  0.7624  0.5215 -0.2815
  105DMF     H5 1747   1.470   0.254   1.002  0.5119  1.3034 -1.5459
  105DMF     H6 1748   1.602   0.380   0.998 -0.3398 -1.0188 -1.5499
  105DMF     H7 1749   1.791   0.349   1.118 -0.1521  0.5063  0.3983
  106DMF     C1 1750   0.938   2.835   2.594 -0.1633 -0.1665 -0.3509
  106DMF     N1 1751   1.007   2.744   2.508 -0.3411  0.5143 -0.3414
  106DMF     C2 1752   1.151   2.711   2.547 -0.6430 -0.4581  0.0929
  106DMF     C3 1753   0.948   2.697   2.387  0.5034 -0.2389  0.8242
  106DMF     O1 1754   0.830   2.717   2.368  0.3691 -0.1875 -0.0649
  106DMF     H1 1755   0.876   2.897   2.529 -0.5548 -1.3646 -1.1347
  106DMF     H2 1756   0.998   2.898   2.661  0.3454 -0.5042 -0.4836
  106DMF     H3 1757   0.862   2.778   2.649  0.3787  0.4358  1.0451
  106DMF     H4 1758   1.215   2.797   2.522 -0.5544 -0.3600  0.6577
  106DMF     H5 1759   1.202   2.631   2.492 -0.0785  0.7817 -1.2557
  106DMF     H6 1760   1.167   2.695   2.654  2.8063  0.3383 -0.2462
  106DMF     H7 1761   1.011   2.631   2.324 -0.5858 -2.5078  2.0423
  107DMF     C1 1762   1.601   1.430   1.046  0.3928  0.3653 -0.2582
  107DMF     N1 1763   1.475   1.363   1.071  0.0908  0.2503 -0.1307
  107DMF     C2 1764   1.348   1.448   1.088  0.1309  0.9141 -0.0437
  107DMF     C3 1765   1.470   1.221   1.080 -0.6282  0.5126 -0.5103
  107DMF     O1 1766   1.572   1.154   1.079  0.1132  0.2390 -0.4959
  107DMF     H1 1767   1.633   1.481   1.139  2.8681 -1.0946 -0.2642
  107DMF     H2 1768   1.573   1.496   0.964  0.5864 -0.3647 -0.9133
  107DMF     H3 1769   1.684   1.363   1.021  2.1095  2.1533  0.4018
  107DMF     H4 1770   1.270   1.407   1.153  1.4962  0.0213  1.0725
  107DMF     H5 1771   1.303   1.467   0.990 -2.3187  0.8399  1.0336
  107DMF     H6 1772   1.376   1.545   1.131  1.6625  0.2063  0.6092
  107DMF     H7 1773   1.371   1.173   1.096 -0.1012 -0.8863 -1.3305
  108DMF     C1 1774   0.744   1.594   2.267  0.0737 -0.4939  0.2121
  108DMF     N1 1775   0.642   1.700   2.268 -0.2103 -0.6929 -0.2577
  108DMF     C2 1776   0.696   1.840   2.266 -0.3396  0.2536 -0.8314
  108DMF     C3 1777   0.514   1.664   2.278  0.1376 -0.7339  0.2412
  108DMF     O1 1778   0.478   1.548   2.265  0.4160  0.1647  0.2617
  108DMF     H1 1779   0.777   1.577   2.370  1.1408 -0.1722 -0.0724
  108DMF     H2 1780   0.821   1.632   2.199 -1.8215 -1.4423 -2.5972
  108DMF     H3 1781   0.707   1.498   2.229  1.1420 -0.6299 -0.4780
  108DMF     H4 1782   0.801   1.854   2.240 -0.2544 -0.8015 -1.0797
  108DMF     H5 1783   0.689   1.871   2.371 -1.0773 -2.6038  0.0193
  108DMF     H6 1784   0.627   1.904   2.210  1.2821  2.4533 -0.3660
  108DMF     H7 1785   0.452   1.749   2.310 -0.2137 -0.8720 -0.0711
  109DMF     C1 1786   0.205   1.747   0.697  0.4837  0.5816  0.4752
  109DMF     N1 1787   0.242   1.720   0.836 -0.5362 -0.0567 -0.0016
  109DMF     C2 1788   0.354   1.792   0.895 -0.2324 -0.6959 -0.5896
  109DMF     C3 1789   0.169   1.626   0.910 -0.1666  0.5382  0.3443
  109DMF     O1 1790   0.074   1.575   0.862 -0.1286 -0.0934  0.2061
  109DMF     H1 1791   0.285   1.794   0.639  0.2667 -0.7348 -0.9285
  109DMF     H2 1792   0.122   1.818   0.707 -0.6624 -0.5685 -0.5515
  109DMF     H3 1793   0.166   1.659   0.644  2.7733  0.1875 -0.6142
  109DMF     H4 1794   0.408   1.714   0.950 -0.2898 -0.2374  0.1309
  109DMF     H5 1795   0.314   1.870   0.962  3.2285  0.7910 -0.1434
  109DMF     H6 1796   0.417   1.841   0.820  0.3164  0.0142  0.3171
  109DMF     H7 1797   0.208   1.609   1.012  1.2531 -1.6133 -0.5346
  110DMF     C1 1798   1.916   3.333   0.249 -0.1734 -0.2834 -0.2658
  110DMF     N1 1799   1.875   3.255   0.362  0.3549  0.2857 -0.1511
  110DMF     C2 1800   1.829   3.326   0.491  0.2192  0.0840 -0.0337
  110DMF     C3 1801   1.845   3.114   0.352 -0.2645  0.7047 -0.2569
  110DMF     O1 1802   1.878   3.048   0.253  0.1393 -0.0031  0.0374
  110DMF     H1 1803   1.862   3.308   0.156 -0.4614  1.1297 -0.4926
  110DMF     H2 1804   2.024   3.318   0.240 -0.3391 -0.6189 -1.9143
  110DMF     H3 1805   1.904   3.441   0.263  2.5750  0.1859 -1.1128
  110DMF     H4 1806   1.923   3.361   0.534 -1.5134  4.3491  0.6048
  110DMF     H5 1807   1.781   3.269   0.571 -0.1887 -0.7592 -0.8652
  110DMF     H6 1808   1.771   3.418   0.475 -1.8956 -0.6337  3.1114
  110DMF     H7 1809   1.805   3.064   0.442 -1.5776  0.9645 -0.6773
  111DMF     C1 1810   2.229   2.294   0.466 -0.1376 -0.4645  0.6337
  111DMF     N1 1811   2.240   2.228   0.598 -0.0051  0.4835  0.1803
  111DMF     C2 1812   2.141   2.124   0.623 -1.0356  0.2718  0.3871
  111DMF     C3 1813   2.343   2.252   0.690  0.6318 -0.7481  0.1215
  111DMF     O1 1814   2.433   2.334   0.674 -0.0742 -0.4875  0.4466
  111DMF     H1 1815   2.140   2.357   0.459  1.2008  1.2836 -1.1229
  111DMF     H2 1816   2.231   2.228   0.379  2.1592 -0.1395  0.3911
  111DMF     H3 1817   2.315   2.361   0.452 -1.5328  1.6833  2.1197
  111DMF     H4 1818   2.087   2.134   0.719 -0.3497 -0.8581  0.9011
  111DMF     H5 1819   2.190   2.026   0.619 -2.2141 -0.3247  0.4498
  111DMF     H6 1820   2.056   2.126   0.554 -1.0927  1.7236  0.4835
  111DMF     H7 1821   2.335   2.184   0.777  1.5044 -1.6381 -0.4675
  112DMF     C1 1822   0.762   2.078   1.132  0.3134 -0.0420  0.2398
  112DMF     N1 1823   0.617   2.070   1.107  0.4357 -1.0637  0.7051
  112DMF     C2 1824   0.532   2.082   1.221 -0.7608 -0.6379  0.3557
  112DMF     C3 1825   0.564   2.039   0.982  0.1704  0.0822 -0.0974
  112DMF     O1 1826   0.633   2.002   0.890 -0.5141  0.0722  1.3285
  112DMF     H1 1827   0.830   2.030   1.062  2.2647  0.4812  1.7338
  112DMF     H2 1828   0.788   2.032   1.228  0.5882  0.0943  0.2315
  112DMF     H3 1829   0.793   2.183   1.135  1.2121 -0.3283  1.2483
  112DMF     H4 1830   0.499   1.984   1.258 -0.0140 -0.8104  0.5732
  112DMF     H5 1831   0.445   2.144   1.196 -0.4889  0.3110  1.6788
  112DMF     H6 1832   0.593   2.130   1.298 -0.3880  0.8031 -0.8194
  112DMF     H7 1833   0.454   2.042   0.988  0.1301  0.9180 -1.0775
  113DMF     C1 1834   2.162   1.941   0.255 -0.0138  0.8378  0.1400
  113DMF     N1 1835   2.030   1.953   0.192  0.5419  0.3552  0.0707
  113DMF     C2 1836   1.946   2.074   0.213 -0.9270  0.2635  0.2153
  113DMF     C3 1837   1.959   1.844   0.133  0.1713 -0.1621 -0.3364
  113DMF     O1 1838   2.008   1.735   0.108 -0.1010 -0.2868  0.5629
  113DMF     H1 1839   2.168   1.982   0.356  0.1516 -0.4603  0.6680
  113DMF     H2 1840   2.232   1.990   0.187  1.4156 -2.2561 -0.7066
  113DMF     H3 1841   2.187   1.834   0.261  0.2977  0.8809 -0.3972
  113DMF     H4 1842   1.909   2.121   0.121 -0.0423  2.3792  0.9135
  113DMF     H5 1843   1.998   2.152   0.270 -1.3814 -0.4474  1.6222
  113DMF     H6 1844   1.855   2.047   0.268 -0.9271 -0.9689 -0.3660
  113DMF     H7 1845   1.856   1.876   0.107  0.3996  1.8104  1.0417
  114DMF     C1 1846   2.248   1.224   1.229 -0.8445  0.0380  0.4292
  114DMF     N1 1847   2.206   1.151   1.112 -0.0440  0.5419 -0.4334
  114DMF     C2 1848   2.095   1.205   1.027  0.1336 -0.0240  0.0444
  114DMF     C3 1849   2.240   1.016   1.091 -0.3108 -0.3028  0.4672
  114DMF     O1 1850   2.310   0.951   1.166 -0.2289  0.3253 -0.2339
  114DMF     H1 1851   2.231   1.329   1.204  0.2515 -0.3208 -1.9868
  114DMF     H2 1852   2.354   1.209   1.256 -1.9821 -2.3574  3.8743
  114DMF     H3 1853   2.195   1.191   1.319  0.4424  0.8900  1.5285
  114DMF     H4 1854   1.995   1.185   1.067 -0.4711  2.1501 -0.3412
  114DMF     H5 1855   2.101   1.156   0.929 -1.7900  0.4195 -0.3149
  114DMF     H6 1856   2.105   1.313   1.014 -1.5118  0.1326 -0.0888
  114DMF     H7 1857   2.193   0.980   0.998 -1.2200 -0.7900  1.0966
  115DMF     C1 1858   1.895   3.167   3.497  0.2360  0.6236  0.1028
  115DMF     N1 1859   1.854   3.146   3.633 -0.1845  0.0184 -0.2204
  115DMF     C2 1860   1.908   3.037   3.698 -0.1711 -0.1944  0.2634
  115DMF     C3 1861   1.767   3.230   3.701 -0.4928  1.0133  0.5691
  115DMF     O1 1862   1.727   3.330   3.651  0.6973 -0.3144 -0.0907
  115DMF     H1 1863   1.998   3.205   3.492  0.7503 -0.4263  1.9577
  115DMF     H2 1864   1.836   3.249   3.454  0.5991  0.1978 -1.2465
  115DMF     H3 1865   1.890   3.072   3.441  1.7207  0.2237  0.6175
  115DMF     H4 1866   1.888   2.946   3.640 -1.5849  1.7632 -2.4125
  115DMF     H5 1867   1.861   3.032   3.797  1.0281 -1.7776  0.7762
  115DMF     H6 1868   2.016   3.058   3.705 -0.0851 -0.6284  0.2597
  115DMF     H7 1869   1.737   3.195   3.802 -0.3389 -0.0885  0.2432
  116DMF     C1 1870   1.713   1.682   3.618  0.7524 -0.5377 -0.2092
  116DMF     N1 1871   1.690   1.819   3.680  0.6794 -0.5355 -0.2536
  116DMF     C2 1872   1.752   1.937   3.622  0.0725  0.3511  0.1727
  116DMF     C3 1873   1.592   1.846   3.783  0.1037 -0.0597 -0.1171
  116DMF     O1 1874   1.515   1.761   3.829  0.2921  0.3176  0.4131
  116DMF     H1 1875   1.697   1.684   3.510  0.0147  2.4700 -0.0866
  116DMF     H2 1876   1.664   1.600   3.673 -1.3247  1.9664  1.7804
  116DMF     H3 1877   1.820   1.663   3.634  1.1126 -1.4263 -3.3939
  116DMF     H4 1878   1.754   1.935   3.512  5.0490  1.0530  0.1695
  116DMF     H5 1879   1.858   1.939   3.649  0.9322 -1.4922 -2.8048
  116DMF     H6 1880   1.700   2.024   3.663 -1.9202 -0.6198 -0.2117
  116DMF     H7 1881   1.588   1.953   3.808 -1.1003  0.2770 -1.6670
  117DMF     C1 1882   0.741   3.412   1.255  0.9035  1.2746  0.3145
  117DMF     N1 1883   0.783   3.506   1.353 -0.4822 -0.3967 -0.6168
  117DMF     C2 1884   0.779   3.470   1.493 -0.4043  0.3189 -0.0432
  117DMF     C3 1885   0.848   3.623   1.322  0.2145  0.1400 -0.0572
  117DMF     O1 1886   0.859   3.665   1.207  0.2889  0.0366 -0.2224
  117DMF     H1 1887   0.835   3.366   1.221 -0.5024 -0.1316 -1.7998
  117DMF     H2 1888   0.700   3.469   1.171 -0.2449 -0.7979 -0.5728
  117DMF     H3 1889   0.673   3.333   1.289  0.3730  2.2771  1.5915
  117DMF     H4 1890   0.854   3.396   1.523  0.4526  0.9845 -0.5447
  117DMF     H5 1891   0.679   3.430   1.516  0.0394 -1.2739 -0.8808
  117DMF     H6 1892   0.786   3.560   1.555 -0.6953 -0.2099  0.7689
  117DMF     H7 1893   0.899   3.679   1.402  1.6762  0.5056 -1.2195
  118DMF     C1 1894   2.754   1.995   3.237  0.6575  0.9818  0.4608
  118DMF     N1 1895   2.647   1.941   3.327  0.5494  0.0835  0.0620
  118DMF     C2 1896   2.684   1.873   3.456  0.3080 -0.5864  0.0664
  118DMF     C3 1897   2.511   1.957   3.297  0.2680 -0.5135  0.2257
  118DMF     O1 1898   2.481   2.030   3.203 -0.1323 -0.2130  0.1102
  118DMF     H1 1899   2.748   1.936   3.144  0.8800 -0.3258  1.2619
  118DMF     H2 1900   2.856   1.973   3.268  0.2887  1.0387  1.7459
  118DMF     H3 1901   2.734   2.102   3.222 -0.1679  0.7495 -0.1749
  118DMF     H4 1902   2.595   1.844   3.514 -0.5125  0.8277 -0.4577
  118DMF     H5 1903   2.752   1.944   3.505 -1.2138  1.8812 -1.3184
  118DMF     H6 1904   2.740   1.782   3.434 -0.3963 -0.7821 -0.9386
  118DMF     H7 1905   2.440   1.909   3.366  0.3691  0.8928  1.3455
  119DMF     C1 1906   0.515   2.879   0.765 -0.5834 -0.1719  0.2814
  119DMF     N1 1907   0.569   2.760   0.705 -1.0058 -0.1243 -0.5663
  119DMF     C2 1908   0.716   2.759   0.675 -0.6306  0.3518 -0.2869
  119DMF     C3 1909   0.486   2.661   0.645  0.0575 -0.0801 -0.0011
  119DMF     O1 1910   0.362   2.660   0.655  0.3697  0.3129 -0.5311
  119DMF     H1 1911   0.551   2.970   0.715  0.6586 -0.1616  1.1872
  119DMF     H2 1912   0.547   2.885   0.870 -0.1653 -0.3293  0.1621
  119DMF     H3 1913   0.406   2.879   0.752 -0.3683  1.6948 -1.9578
  119DMF     H4 1914   0.776   2.798   0.758  1.6838 -2.0826 -0.7603
  119DMF     H5 1915   0.729   2.823   0.587 -0.9885  0.8584  0.0228
  119DMF     H6 1916   0.754   2.662   0.642  2.3926  1.6910 -0.8400
  119DMF     H7 1917   0.542   2.583   0.591 -0.8222 -0.7906  0.1024
  120DMF     C1 1918   0.062   0.888   2.703  0.5384 -0.3194 -0.3882
  120DMF     N1 1919   0.108   1.034   2.720  0.1462  0.5140 -0.3699
  120DMF     C2 1920   0.178   1.080   2.835 -0.7192  1.2644  0.3356
  120DMF     C3 1921   0.072   1.128   2.624  0.1988  0.2107 -0.3761
  120DMF     O1 1922   0.006   1.108   2.519 -0.6158 -0.1909 -0.6169
  120DMF     H1 1923   0.056   0.866   2.596 -1.3607 -1.0180 -0.1549
  120DMF     H2 1924  -0.041   0.880   2.740  0.4603  1.8598 -0.0730
  120DMF     H3 1925   0.125   0.825   2.767  2.9464  1.6780 -0.6982
  120DMF     H4 1926   0.219   0.996   2.893 -0.9294  0.0213 -1.2673
  120DMF     H5 1927   0.100   1.125   2.897 -0.1075 -1.7694  3.5118
  120DMF     H6 1928   0.251   1.149   2.792 -0.3607  0.4532 -0.3732
  120DMF     H7 1929   0.091   1.232   2.657  1.0080  0.1138 -0.5373
  121DMF     C1 1930   1.553   0.280   2.488  0.1449  0.0546  0.2357
  121DMF     N1 1931   1.470   0.330   2.602 -0.1182  0.1528  0.1022
  121DMF     C2 1932   1.403   0.461   2.573 -0.7762  0.5281  0.1550
  121DMF     C3 1933   1.480   0.267   2.727  0.2604 -0.7215  0.4622
  121DMF     O1 1934   1.560   0.178   2.744  0.2670 -0.8493 -0.1396
  121DMF     H1 1935   1.630   0.354   2.464  2.6767 -1.5701  2.9635
  121DMF     H2 1936   1.504   0.263   2.392 -0.7665 -0.0243  0.7137
  121DMF     H3 1937   1.597   0.183   2.515 -0.9280 -0.0582  1.6767
  121DMF     H4 1938   1.295   0.449   2.587 -0.9408  0.3014 -1.1977
  121DMF     H5 1939   1.430   0.492   2.471  1.8458 -1.8884  0.0523
  121DMF     H6 1940   1.456   0.530   2.639 -0.1146 -0.0352  0.2189
  121DMF     H7 1941   1.397   0.296   2.793 -0.9545  0.0042 -1.3330
  122DMF     C1 1942   2.443   1.213   1.568 -0.3784  0.1850  0.4952
  122DMF     N1 1943   2.464   1.359   1.552 -0.1458 -0.4399  0.6332
  122DMF     C2 1944   2.605   1.401   1.531  0.3861  0.3888 -0.8430
  122DMF     C3 1945   2.361   1.445   1.535  0.1717 -0.1422  0.1365
  122DMF     O1 1946   2.245   1.417   1.563 -0.2423  0.3993 -0.0631
  122DMF     H1 1947   2.336   1.190   1.583 -0.1433 -1.5737 -0.4404
  122DMF     H2 1948   2.510   1.183   1.650 -2.8828 -0.1564  2.4990
  122DMF     H3 1949   2.477   1.165   1.476 -0.7800  0.4230  0.2194
  122DMF     H4 1950   2.638   1.440   1.628 -1.3669  0.8767 -0.4277
  122DMF     H5 1951   2.607   1.485   1.460 -0.1254 -1.0900 -2.6510
  122DMF     H6 1952   2.667   1.318   1.498  2.2237  0.8947  1.1979
  122DMF     H7 1953   2.393   1.544   1.497  0.3355 -0.2579 -0.0307
  123DMF     C1 1954   0.816   1.213   1.224 -0.0748 -0.2786 -0.4368
  123DMF     N1 1955   0.912   1.250   1.123 -0.2785  0.2768 -0.9007
  123DMF     C2 1956   1.037   1.168   1.119  0.0842  0.0816 -0.4592
  123DMF     C3 1957   0.887   1.352   1.022  0.4104 -0.3715 -0.4697
  123DMF     O1 1958   0.791   1.428   1.019  0.3851 -0.2973 -0.7577
  123DMF     H1 1959   0.845   1.114   1.263  1.6993  0.4700  0.1982
  123DMF     H2 1960   0.718   1.194   1.179 -0.2240 -0.8841  0.1302
  123DMF     H3 1961   0.808   1.281   1.309  0.8135 -1.4224  0.5898
  123DMF     H4 1962   1.046   1.101   1.205  0.7152 -0.3132 -0.8319
  123DMF     H5 1963   1.127   1.232   1.116 -0.4020  0.7840 -0.1199
  123DMF     H6 1964   1.036   1.109   1.027  1.1288  0.4779 -0.7409
  123DMF     H7 1965   0.970   1.361   0.949  1.4341 -0.6687  0.6358
  124DMF     C1 1966   1.076   0.219   3.799  0.0235 -0.1481 -0.5988
  124DMF     N1 1967   0.993   0.334   3.832 -0.8149  0.4737  0.7544
  124DMF     C2 1968   0.932   0.353   3.965  0.0483 -0.8394 -0.2864
  124DMF     C3 1969   1.001   0.437   3.735 -0.2073 -0.2160  0.3824
  124DMF     O1 1970   1.034   0.418   3.620  0.1968 -0.1332  0.7690
  124DMF     H1 1971   1.062   0.201   3.692  1.1641  1.5076 -1.0388
  124DMF     H2 1972   1.041   0.130   3.852  0.1489 -0.8018 -1.6204
  124DMF     H3 1973   1.185   0.228   3.807  0.0494  0.0662 -1.2320
  124DMF     H4 1974   1.006   0.334   4.044  0.0581 -1.3454 -0.4147
  124DMF     H5 1975   0.847   0.285   3.981 -0.0067 -0.7897 -0.3676
  124DMF     H6 1976   0.897   0.457   3.968 -0.3172 -0.8792 -2.4774
  124DMF     H7 1977   0.975   0.537   3.775  0.4182  0.3328 -0.5498
  125DMF     C1 1978   0.261   2.655   3.119  0.4287 -0.5595 -0.1267
  125DMF     N1 1979   0.227   2.791   3.166  0.0945 -0.8328  0.2443
  125DMF     C2 1980   0.184   2.812   3.305 -0.7165  0.2773 -0.5698
  125DMF     C3 1981   0.233   2.898   3.075 -0.5883 -0.1797  0.1665
  125DMF     O1 1982   0.308   2.894   2.977  0.3624 -0.2838  0.3889
  125DMF     H1 1983   0.305   2.665   3.019  2.6280  1.8003  1.0196
  125DMF     H2 1984   0.169   2.596   3.118 -0.2039  0.3859  1.2540
  125DMF     H3 1985   0.324   2.603   3.192  0.1941  3.2762  2.9870
  125DMF     H4 1986   0.242   2.895   3.347 -0.1865 -0.0440 -0.6573
  125DMF     H5 1987   0.192   2.717   3.360 -0.1149  0.0244 -1.0775
  125DMF     H6 1988   0.085   2.858   3.296 -1.7091 -2.1185 -2.4614
  125DMF     H7 1989   0.183   2.989   3.112  1.1689  1.1684 -0.7020
  126DMF     C1 1990   1.748   0.041   1.509 -0.1630  0.0032 -0.0694
  126DMF     N1 1991   1.610   0.061   1.552  0.5780 -0.2072 -0.6326
  126DMF     C2 1992   1.552   0.193   1.574 -0.0054 -0.4012  0.3221
  126DMF     C3 1993   1.524  -0.052   1.574 -0.6606 -0.5227 -0.6048
  126DMF     O1 1994   1.554  -0.170   1.563  0.6108 -0.2331  0.2152
  126DMF     H1 1995   1.805   0.134   1.510  0.3430 -0.3187  1.8558
  126DMF     H2 1996   1.748   0.002   1.406  0.2225 -0.1965  0.0077
  126DMF     H3 1997   1.803  -0.031   1.570 -2.8865 -0.7871  1.5629
  126DMF     H4 1998   1.454   0.196   1.623 -0.6399  2.8674 -1.0252
  126DMF     H5 1999   1.528   0.231   1.474  0.1098 -0.3865  0.2995
  126DMF     H6 2000   1.621   0.259   1.629  1.4525 -0.8947 -0.8965
  126DMF     H7 2001   1.423  -0.016   1.604  0.1967  0.2029  1.4649
  127DMF     C1 2002   0.714   1.404   3.033 -0.2678  0.0791 -0.1054
  127DMF     N1 2003   0.726   1.260   2.984  0.7213 -0.1869 -0.4650
  127DMF     C2 2004   0.683   1.145   3.076  0.2209  0.2246  0.5481
  127DMF     C3 2005   0.743   1.233   2.842 -0.2488  0.3549 -0.1591
  127DMF     O1 2006   0.748   1.318   2.749 -0.1776 -0.4858 -0.3064
  127DMF     H1 2007   0.633   1.470   3.001 -1.4509 -0.0370  2.4945
  127DMF     H2 2008   0.811   1.444   2.999  1.2602 -2.0690  1.5315
  127DMF     H3 2009   0.716   1.413   3.142 -1.5728  0.7097 -0.1335
  127DMF     H4 2010   0.742   1.150   3.168  0.0296 -1.2318  0.7665
  127DMF     H5 2011   0.696   1.048   3.026  1.4100  0.0142  1.2399
  127DMF     H6 2012   0.577   1.156   3.100  0.1955 -0.4822  0.7934
  127DMF     H7 2013   0.753   1.126   2.816  0.1306  0.8185 -1.9487
  128DMF     C1 2014   2.115   2.097   2.740 -0.2460  0.4708  0.3825
  128DMF     N1 2015   2.052   2.047   2.861  0.7429 -0.1522  0.3101
  128DMF     C2 2016   2.031   2.142   2.967  0.4268 -0.4226 -0.0020
  128DMF     C3 2017   2.025   1.909   2.869  0.3377 -0.1116 -0.6489
  128DMF     O1 2018   2.034   1.835   2.774 -0.4728 -0.6528  0.1221
  128DMF     H1 2019   2.218   2.058   2.736 -0.3799  0.1518 -0.0387
  128DMF     H2 2020   2.136   2.202   2.763  1.5399  0.1019  0.5208
  128DMF     H3 2021   2.054   2.088   2.649 -0.8428  1.5332  0.6685
  128DMF     H4 2022   1.960   2.216   2.928 -1.0336 -3.1528 -2.7122
  128DMF     H5 2023   2.125   2.189   2.996  0.5368 -0.8753  0.3995
  128DMF     H6 2024   1.982   2.110   3.060 -2.3633  3.1137 -0.1505
  128DMF     H7 2025   1.994   1.869   2.967 -0.8404  0.7976 -0.6379
  129DMF     C1 2026   0.155   1.480   2.232  0.3802 -0.0760 -0.5658
  129DMF     N1 2027   0.033   1.402   2.231  0.7815  0.0848 -0.0547
  129DMF     C2 2028   0.045   1.253   2.232 -0.0458  0.2891  0.1473
  129DMF     C3 2029  -0.093   1.464   2.226  0.6312  0.7284  0.0443
  129DMF     O1 2030  -0.102   1.584   2.234 -0.2681 -0.0964 -0.0047
  129DMF     H1 2031   0.240   1.414   2.214 -0.2003 -0.8304 -0.5768
  129DMF     H2 2032   0.162   1.525   2.332 -1.0626 -0.8498 -0.0988
  129DMF     H3 2033   0.163   1.558   2.156 -1.7266  0.4421 -0.2891
  129DMF     H4 2034   0.010   1.217   2.135  0.2853  0.6634 -0.1095
  129DMF     H5 2035  -0.007   1.210   2.319  1.2715 -2.0969 -0.1875
  129DMF     H6 2036   0.151   1.223   2.233 -0.5600 -1.6395  1.7655
  129DMF     H7 2037  -0.174   1.388   2.225  1.0426  0.2878  0.3258
  130DMF     C1 2038   2.735   1.703   0.331 -0.6908  0.2507 -0.1271
  130DMF     N1 2039   2.772   1.774   0.210  0.1272  0.1866 -0.2845
  130DMF     C2 2040   2.765   1.915   0.218  0.6080  0.4657  0.1926
  130DMF     C3 2041   2.787   1.709   0.086 -0.6049  0.2191 -0.9487
  130DMF     O1 2042   2.789   1.585   0.071  0.3957  0.6917  0.0515
  130DMF     H1 2043   2.752   1.596   0.314  0.0138  0.2093  0.7980
  130DMF     H2 2044   2.627   1.719   0.340 -0.4074  1.1450  2.1898
  130DMF     H3 2045   2.798   1.734   0.415  1.0471 -0.7083 -1.0566
  130DMF     H4 2046   2.789   1.953   0.318 -2.3132  1.7272  0.4638
  130DMF     H5 2047   2.659   1.926   0.190 -0.5618 -0.4543  3.9916
  130DMF     H6 2048   2.817   1.965   0.135  1.5470 -0.7547  0.0418
  130DMF     H7 2049   2.779   1.771  -0.006 -4.1055 -0.1232 -0.9399
  131DMF     C1 2050   1.586   1.018   2.261  0.3282 -0.4506 -0.0227
  131DMF     N1 2051   1.484   0.930   2.324  0.3553  0.0660  0.1884
  131DMF     C2 2052   1.439   0.806   2.257  0.5771 -0.3261 -0.8505
  131DMF     C3 2053   1.406   0.984   2.435 -0.5144 -0.3261 -0.9627
  131DMF     O1 2054   1.406   1.101   2.467 -0.3426 -0.0749 -0.0300
  131DMF     H1 2055   1.553   1.122   2.269 -0.5503 -0.4281 -3.0606
  131DMF     H2 2056   1.606   0.986   2.158  0.9276 -0.9457  0.2407
  131DMF     H3 2057   1.683   1.002   2.311  0.1072  0.8494  0.8404
  131DMF     H4 2058   1.409   0.731   2.330  1.6186 -0.1462 -0.2387
  131DMF     H5 2059   1.520   0.768   2.194  0.8722  0.3450 -0.8811
  131DMF     H6 2060   1.349   0.828   2.197 -0.6294 -5.4981 -1.1119
  131DMF     H7 2061   1.331   0.910   2.469 -0.3527  0.1465  0.4339
  132DMF     C1 2062   0.636   2.971   1.510 -0.4230  0.2435 -0.0103
  132DMF     N1 2063   0.509   3.055   1.517  0.3320 -0.7299  0.3913
  132DMF     C2 2064   0.519   3.200   1.525 -0.0244 -0.0569 -0.5239
  132DMF     C3 2065   0.386   2.991   1.529  0.5860 -0.7077  0.2737
  132DMF     O1 2066   0.372   2.871   1.523  0.0490  0.1740 -0.7457
  132DMF     H1 2067   0.690   3.008   1.422 -1.3902  0.3862 -0.5522
  132DMF     H2 2068   0.615   2.864   1.498 -0.2377  0.1116  0.8129
  132DMF     H3 2069   0.699   2.986   1.598  0.9361  0.5277 -1.0246
  132DMF     H4 2070   0.611   3.247   1.487 -0.4399  0.9521 -0.2914
  132DMF     H5 2071   0.512   3.234   1.629 -2.8130 -0.5043 -0.5180
  132DMF     H6 2072   0.434   3.250   1.477  0.1163  1.7729  1.0874
  132DMF     H7 2073   0.304   3.064   1.545  0.8970 -0.2879 -0.0333
  133DMF     C1 2074   1.019   0.541   1.562  0.1743 -0.1733 -0.0157
  133DMF     N1 2075   0.885   0.594   1.562  0.2122  0.3078 -0.0783
  133DMF     C2 2076   0.862   0.743   1.538 -0.6890  0.4407 -0.0617
  133DMF     C3 2077   0.778   0.503   1.564 -0.0749 -0.2087  0.3831
  133DMF     O1 2078   0.788   0.381   1.580 -0.3407 -0.7395 -0.2170
  133DMF     H1 2079   1.094   0.621   1.556 -0.1017  0.1772  1.0496
  133DMF     H2 2080   1.022   0.490   1.464  0.6017 -0.1080 -0.0372
  133DMF     H3 2081   1.046   0.475   1.645 -1.0232  1.8304  2.0026
  133DMF     H4 2082   0.883   0.802   1.628  0.3253 -0.8626  0.5704
  133DMF     H5 2083   0.754   0.754   1.528 -0.7196 -0.0993 -0.3543
  133DMF     H6 2084   0.932   0.774   1.459 -0.5800  0.6848  0.1300
  133DMF     H7 2085   0.692   0.556   1.521  1.3254  1.1620 -0.7815
  134DMF     C1 2086   1.925   3.308   0.989  0.6262  0.3791  0.0946
  134DMF     N1 2087   1.971   3.357   1.122 -0.5584  0.1659  0.1518
  134DMF     C2 2088   1.938   3.275   1.242 -0.9030 -0.4345 -0.1635
  134DMF     C3 2089   2.048   3.470   1.139  0.0493  0.2688 -0.2277
  134DMF     O1 2090   2.096   3.539   1.048 -0.0293  0.6211  0.1169
  134DMF     H1 2091   1.879   3.210   1.006 -0.1508  0.9984  1.6217
  134DMF     H2 2092   2.015   3.296   0.927  0.8989 -1.6619  0.8584
  134DMF     H3 2093   1.856   3.373   0.934 -0.0456 -0.9431 -0.6476
  134DMF     H4 2094   1.834   3.292   1.273 -0.4693  0.9605  0.5517
  134DMF     H5 2095   1.993   3.303   1.333 -1.6786 -0.5742  0.3542
  134DMF     H6 2096   1.954   3.168   1.220 -1.4011 -0.5102 -0.1729
  134DMF     H7 2097   2.069   3.490   1.245  1.4775  0.4919 -0.5394
  135DMF     C1 2098   2.546   0.834   2.292 -0.2242  0.3063  0.1557
  135DMF     N1 2099   2.462   0.954   2.268  0.9421  0.3627 -0.6326
  135DMF     C2 2100   2.310   0.929   2.282  0.0111 -0.9444  0.4633
  135DMF     C3 2101   2.507   1.075   2.224 -0.4552  0.5738 -0.2806
  135DMF     O1 2102   2.625   1.098   2.215  0.4463 -0.4578 -0.4366
  135DMF     H1 2103   2.504   0.784   2.380 -0.9519 -0.1133 -0.4220
  135DMF     H2 2104   2.646   0.862   2.326 -0.5708  0.6640  0.8852
  135DMF     H3 2105   2.556   0.770   2.203  2.2992  0.8498  0.0126
  135DMF     H4 2106   2.309   0.842   2.348  0.9827 -1.7937 -0.6318
  135DMF     H5 2107   2.265   0.901   2.187  0.1292 -0.8250  0.3708
  135DMF     H6 2108   2.255   1.013   2.327 -1.1294 -0.8719 -1.0518
  135DMF     H7 2109   2.427   1.142   2.187  0.2282  0.9634 -1.0691
  136DMF     C1 2110   3.105   1.354   2.521 -0.4235  0.0952  0.3719
  136DMF     N1 2111   3.211   1.405   2.610  0.3186  0.7029  0.0459
  136DMF     C2 2112   3.291   1.519   2.567  0.3770  0.5779 -0.9597
  136DMF     C3 2113   3.243   1.342   2.730 -0.3833  0.2068  0.1727
  136DMF     O1 2114   3.176   1.250   2.777  0.0160 -0.2019  0.2789
  136DMF     H1 2115   3.062   1.442   2.470  0.8552 -1.0921 -2.8775
  136DMF     H2 2116   3.023   1.321   2.587  0.1722  0.4675  1.3054
  136DMF     H3 2117   3.147   1.284   2.448 -1.5639 -0.7365  0.4976
  136DMF     H4 2118   3.225   1.603   2.540  0.7515  0.5024 -2.1340
  136DMF     H5 2119   3.353   1.506   2.478  0.2303 -0.3463 -0.9301
  136DMF     H6 2120   3.357   1.556   2.646  0.0567  4.7761 -2.5346
  136DMF     H7 2121   3.339   1.378   2.771 -1.4890  1.2180  1.9219
  137DMF     C1 2122   2.745   2.286   1.177 -0.7361  0.4843 -0.0730
  137DMF     N1 2123   2.884   2.247   1.186 -0.0099 -0.8606 -0.0152
  137DMF     C2 2124   2.916   2.100   1.184 -0.1689 -0.4403 -0.7818
  137DMF     C3 2125   2.986   2.342   1.187  0.4765  0.2827  0.4440
  137DMF     O1 2126   2.966   2.462   1.173 -0.2688  0.0702  0.5907
  137DMF     H1 2127   2.702   2.230   1.093  2.2093  0.4451 -1.6199
  137DMF     H2 2128   2.726   2.394   1.170  0.8927  0.7850  0.1362
  137DMF     H3 2129   2.698   2.259   1.272  0.9936  0.0286  0.6715
  137DMF     H4 2130   2.965   2.067   1.277 -1.4510  1.0992  0.4823
  137DMF     H5 2131   2.974   2.074   1.095  0.6933  2.1559 -1.0402
  137DMF     H6 2132   2.820   2.047   1.180 -1.1476  1.2155 -0.0272
  137DMF     H7 2133   3.089   2.310   1.209  0.5362  1.2974  1.6616
  138DMF     C1 2134   0.284   1.348   3.112 -0.4897 -0.2087 -0.2163
  138DMF     N1 2135   0.174   1.403   3.188  0.0517  0.7748 -0.4096
  138DMF     C2 2136   0.109   1.523   3.141  0.2158 -0.2070  0.2996
  138DMF     C3 2137   0.141   1.351   3.317 -0.0577 -0.3138 -0.1894
  138DMF     O1 2138   0.215   1.261   3.360  0.6886  0.4929  0.0140
  138DMF     H1 2139   0.376   1.349   3.172 -0.3129  0.5341 -0.4892
  138DMF     H2 2140   0.304   1.402   3.018 -0.5043 -1.9671 -1.2439
  138DMF     H3 2141   0.273   1.243   3.084  2.5663 -0.6390  0.0505
  138DMF     H4 2142   0.072   1.506   3.039 -0.9793  0.3909  0.6220
  138DMF     H5 2143   0.173   1.611   3.157  0.9937 -1.1459  2.4527
  138DMF     H6 2144   0.024   1.536   3.209  1.4180  0.3530  1.7238
  138DMF     H7 2145   0.061   1.402   3.373  0.5643  1.9550 -1.2923
  139DMF     C1 2146   2.997   1.639   1.162 -0.1814  0.9975  0.6796
  139DMF     N1 2147   3.105   1.554   1.114  0.6977 -0.0034 -0.0354
  139DMF     C2 2148   3.239   1.604   1.137  0.4628 -0.8987  0.5160
  139DMF     C3 2149   3.085   1.445   1.018 -0.7100  0.3245 -0.0395
  139DMF     O1 2150   2.975   1.408   0.989  0.2742 -0.3652  0.7601
  139DMF     H1 2151   2.995   1.629   1.271  0.7033  0.1752  0.6295
  139DMF     H2 2152   2.908   1.614   1.102  1.0581  1.7758 -1.5560
  139DMF     H3 2153   3.034   1.741   1.147  0.4104  0.8906  1.3918
  139DMF     H4 2154   3.290   1.542   1.212  1.3852 -0.1404  0.5185
  139DMF     H5 2155   3.240   1.707   1.174 -1.8299 -0.2564 -1.0875
  139DMF     H6 2156   3.290   1.606   1.039 -1.1282  0.3083 -0.3130
  139DMF     H7 2157   3.181   1.408   0.979  0.3731  1.3707  1.5354
  140DMF     C1 2158   1.857   0.079   2.726  0.6997  0.0331 -0.0428
  140DMF     N1 2159   2.009   0.071   2.718  0.3804  0.3232 -0.1879
  140DMF     C2 2160   2.091   0.100   2.835 -0.3719 -0.4659  0.1056
  140DMF     C3 2161   2.078   0.020   2.608  0.1300  0.0411  0.1410
  140DMF     O1 2162   2.019  -0.026   2.507  1.1018 -0.2966  0.3825
  140DMF     H1 2163   1.842   0.150   2.808  1.0344  0.6629 -0.5225
  140DMF     H2 2164   1.820  -0.024   2.730 -0.7218  0.5492  0.2183
  140DMF     H3 2165   1.815   0.137   2.643 -0.2852 -0.5181  0.0713
  140DMF     H4 2166   2.194   0.136   2.822 -0.5939  0.2864  0.3516
  140DMF     H5 2167   2.102   0.013   2.901 -0.4971 -0.5379  0.0310
  140DMF     H6 2168   2.032   0.166   2.900 -0.5385  0.0844 -0.6091
  140DMF     H7 2169   2.185   0.023   2.637  0.3583  3.2706 -0.8280
  141DMF     C1 2170   1.893   0.614   2.741  0.0410 -0.1230  0.1611
  141DMF     N1 2171   1.992   0.561   2.648 -0.0208 -0.1977 -0.2845
  141DMF     C2 2172   1.997   0.415   2.638  0.1803  0.0217  0.3536
  141DMF     C3 2173   2.094   0.640   2.597 -0.1135  1.1748 -0.2978
  141DMF     O1 2174   2.103   0.766   2.608 -0.3910  0.0655 -0.0812
  141DMF     H1 2175   1.925   0.619   2.846  0.4027 -0.6618  0.0755
  141DMF     H2 2176   1.808   0.545   2.743 -1.7758  2.0429  0.2509
  141DMF     H3 2177   1.851   0.712   2.715  0.5333  0.0122 -0.1379
  141DMF     H4 2178   1.936   0.374   2.557 -0.3848 -1.4329  1.4830
  141DMF     H5 2179   1.953   0.385   2.734  3.3691 -1.0076  1.5829
  141DMF     H6 2180   2.099   0.373   2.636  0.4080  0.6232 -0.7101
  141DMF     H7 2181   2.157   0.585   2.525  0.5739  3.6718 -1.6733
  142DMF     C1 2182   1.458   2.565   1.516  0.0170 -0.8303  0.1741
  142DMF     N1 2183   1.589   2.632   1.551  0.9675  0.7201 -0.1662
  142DMF     C2 2184   1.591   2.779   1.580 -0.4918  1.0718  0.5229
  142DMF     C3 2185   1.692   2.546   1.574 -0.0775  0.1837 -0.4236
  142DMF     O1 2186   1.690   2.422   1.556 -0.3356  0.0932 -0.5983
  142DMF     H1 2187   1.447   2.517   1.418 -1.0066  1.3638 -0.8145
  142DMF     H2 2188   1.377   2.639   1.514  0.7112 -0.0520  0.6572
  142DMF     H3 2189   1.427   2.489   1.589 -1.5505  0.1597  0.5630
  142DMF     H4 2190   1.608   2.840   1.490  1.3338 -1.7509 -1.1267
  142DMF     H5 2191   1.666   2.807   1.655 -0.1884  0.4907  0.4449
  142DMF     H6 2192   1.497   2.806   1.629 -0.9123 -0.1215  0.3872
  142DMF     H7 2193   1.784   2.593   1.615  1.5801 -2.7205 -0.6656
  143DMF     C1 2194   1.944   1.143   1.551  0.0488 -0.2044 -0.3253
  143DMF     N1 2195   1.881   1.108   1.430  0.3006 -0.2875  0.4367
  143DMF     C2 2196   1.938   1.011   1.340 -0.0007 -0.0629 -0.1255
  143DMF     C3 2197   1.766   1.183   1.393  0.0635  0.2245 -0.2483
  143DMF     O1 2198   1.708   1.268   1.460 -0.5255  0.2294 -0.0477
  143DMF     H1 2199   2.046   1.105   1.564 -0.7490 -1.8215  1.3422
  143DMF     H2 2200   1.885   1.106   1.635 -0.5252  0.1633 -0.5664
  143DMF     H3 2201   1.959   1.252   1.552 -0.9311 -0.0719  0.0213
  143DMF     H4 2202   1.872   0.924   1.324 -1.7373  1.2844 -0.4095
  143DMF     H5 2203   2.039   0.981   1.371  0.4307  0.2682 -1.2138
  143DMF     H6 2204   1.945   1.060   1.243  0.2764 -0.3430 -0.2467
  143DMF     H7 2205   1.730   1.169   1.289 -2.3511  0.4539  0.5258
  144DMF     C1 2206   2.709   2.521   0.712 -0.2645 -0.1983 -0.2968
  144DMF     N1 2207   2.839   2.451   0.733  0.3725 -0.1732  0.0643
  144DMF     C2 2208   2.887   2.442   0.877  0.4224 -0.3676  0.0891
  144DMF     C3 2209   2.911   2.380   0.634 -0.2657  0.2442  1.2506
  144DMF     O1 2210   2.863   2.370   0.518 -0.2874 -0.5539  0.1574
  144DMF     H1 2211   2.625   2.457   0.741  0.5462 -1.4038 -0.5422
  144DMF     H2 2212   2.702   2.540   0.604 -1.8778  0.8431 -0.0183
  144DMF     H3 2213   2.705   2.620   0.759  1.5170 -1.1023  1.8402
  144DMF     H4 2214   2.994   2.464   0.877  0.4332 -0.4078  1.0556
  144DMF     H5 2215   2.882   2.341   0.921  2.0672 -0.3170  0.4217
  144DMF     H6 2216   2.843   2.517   0.944 -0.2803 -0.6422 -0.0592
  144DMF     H7 2217   3.008   2.338   0.666 -0.8457 -1.3389  0.9637
  145DMF     C1 2218   0.744   0.692   3.730 -0.2905  0.1671 -0.0764
  145DMF     N1 2219   0.607   0.689   3.682 -0.3116  0.1382  0.3386
  145DMF     C2 2220   0.514   0.795   3.731 -0.4325  0.1899 -0.2761
  145DMF     C3 2221   0.563   0.592   3.592 -0.6518  0.0456  0.2393
  145DMF     O1 2222   0.639   0.502   3.556  0.4573 -0.2307 -0.3042
  145DMF     H1 2223   0.778   0.588   3.740 -1.4672  0.0327  2.7736
  145DMF     H2 2224   0.738   0.721   3.836 -2.2997 -1.0804  0.1758
  145DMF     H3 2225   0.813   0.748   3.665 -0.8180 -0.0810 -0.8577
  145DMF     H4 2226   0.462   0.831   3.641 -1.1813 -1.1389 -0.4008
  145DMF     H5 2227   0.560   0.882   3.779  0.1077  0.7373 -1.7362
  145DMF     H6 2228   0.443   0.744   3.797 -0.6971 -0.6209 -1.1671
  145DMF     H7 2229   0.458   0.602   3.558 -0.6184 -0.4445 -0.0125
  146DMF     C1 2230   0.234   2.724   2.521 -0.1060 -0.5423  0.0175
  146DMF     N1 2231   0.247   2.740   2.661  0.6223  0.4553  0.5725
  146DMF     C2 2232   0.387   2.719   2.720 -0.1060 -0.0569  0.1149
  146DMF     C3 2233   0.136   2.761   2.737  0.1030 -0.2156  0.4417
  146DMF     O1 2234   0.020   2.776   2.694  0.2038  0.0814  0.3640
  146DMF     H1 2235   0.333   2.693   2.486  0.5137 -0.8055  1.9855
  146DMF     H2 2236   0.187   2.804   2.462 -4.5367 -2.6229  0.5016
  146DMF     H3 2237   0.167   2.638   2.507 -1.0839 -0.0490  1.4936
  146DMF     H4 2238   0.442   2.640   2.667  0.3964  0.2181  0.2294
  146DMF     H5 2239   0.377   2.680   2.822 -0.5625  0.5919  0.3246
  146DMF     H6 2240   0.451   2.808   2.717 -0.0186 -0.0373  1.7577
  146DMF     H7 2241   0.172   2.769   2.841  1.6877  1.1030 -0.1818
  147DMF     C1 2242   2.515   1.313   0.334  0.0212  0.4359  0.2066
  147DMF     N1 2243   2.578   1.234   0.440  0.5876  0.1726 -0.5100
  147DMF     C2 2244   2.573   1.085   0.427 -0.3987  1.0742  0.0174
  147DMF     C3 2245   2.635   1.299   0.552 -0.1413  0.3572 -0.3884
  147DMF     O1 2246   2.632   1.421   0.570  0.8043 -0.0379  0.2066
  147DMF     H1 2247   2.448   1.393   0.368  0.5771  0.9466  0.0973
  147DMF     H2 2248   2.451   1.252   0.269  0.0787 -1.1268  1.5854
  147DMF     H3 2249   2.593   1.362   0.274 -0.0472  0.7783  0.3953
  147DMF     H4 2250   2.492   1.042   0.487  0.8263  1.0753  1.6903
  147DMF     H5 2251   2.670   1.038   0.449  0.5510  2.0017 -2.0077
  147DMF     H6 2252   2.542   1.064   0.324 -1.2198 -4.8663  1.2966
  147DMF     H7 2253   2.684   1.232   0.624  2.5020  0.5236 -1.9602
  148DMF     C1 2254   2.357   0.067   1.580  0.1697  0.3440 -0.2861
  148DMF     N1 2255   2.246   0.174   1.578 -0.0838  0.8054 -0.4190
  148DMF     C2 2256   2.293   0.314   1.568  0.0491 -0.7742 -0.3041
  148DMF     C3 2257   2.118   0.133   1.551  0.3304  0.1994 -0.1840
  148DMF     O1 2258   2.079   0.018   1.556 -0.3116 -0.5096  0.4276
  148DMF     H1 2259   2.327  -0.031   1.620 -1.2892  0.6599 -0.5807
  148DMF     H2 2260   2.443   0.107   1.635 -0.2279  0.3385  0.3469
  148DMF     H3 2261   2.390   0.056   1.476 -0.9303 -1.5528 -0.4667
  148DMF     H4 2262   2.401   0.320   1.556 -0.1703  1.9251 -1.2990
  148DMF     H5 2263   2.279   0.366   1.663  1.0520 -2.3750  0.7414
  148DMF     H6 2264   2.242   0.353   1.479  0.6794 -0.2982 -0.4623
  148DMF     H7 2265   2.045   0.216   1.545  0.6024  0.4151 -0.5108
  149DMF     C1 2266   1.885   0.897   0.704  0.4344 -0.2586  0.4378
  149DMF     N1 2267   1.810   0.976   0.802 -0.3608  0.8635 -0.2077
  149DMF     C2 2268   1.693   1.047   0.760  0.8104 -0.2156 -0.5633
  149DMF     C3 2269   1.853   0.993   0.933 -0.9053 -0.5872  0.1677
  149DMF     O1 2270   1.944   0.929   0.985 -0.3413 -0.0783 -0.4613
  149DMF     H1 2271   1.991   0.919   0.721  0.5666 -0.8910  0.4481
  149DMF     H2 2272   1.855   0.932   0.605  1.0302  0.4081  0.4933
  149DMF     H3 2273   1.879   0.788   0.716  0.8945 -0.3567 -0.2166
  149DMF     H4 2274   1.606   1.001   0.809 -0.0236  1.8984  0.0036
  149DMF     H5 2275   1.684   1.045   0.651  0.8047  1.0116 -0.5849
  149DMF     H6 2276   1.699   1.150   0.797  2.7606 -0.6804  0.5013
  149DMF     H7 2277   1.807   1.074   0.991 -3.0931 -2.3087  0.8913
  150DMF     C1 2278   2.855   0.946   1.566  0.5057 -0.7255  0.0757
  150DMF     N1 2279   2.922   0.930   1.443 -0.0334 -0.0079  0.0039
  150DMF     C2 2280   2.858   0.974   1.326 -0.9552  0.5873 -0.2196
  150DMF     C3 2281   3.041   0.850   1.436 -0.0605  0.4036 -0.5837
  150DMF     O1 2282   3.092   0.811   1.543  0.0890  0.2862  0.4478
  150DMF     H1 2283   2.766   1.009   1.554  0.6418 -0.4203  0.6461
  150DMF     H2 2284   2.926   0.987   1.639 -0.2115 -2.2245  1.6496
  150DMF     H3 2285   2.813   0.849   1.594 -0.8401 -0.1560  0.0457
  150DMF     H4 2286   2.749   0.969   1.338 -0.8931  0.5316  0.3703
  150DMF     H5 2287   2.891   0.907   1.247 -0.2171  2.1494 -1.2711
  150DMF     H6 2288   2.885   1.074   1.291  0.6035 -0.6682 -2.6851
  150DMF     H7 2289   3.090   0.851   1.336  0.4224 -1.9487 -0.4117
  151DMF     C1 2290   0.105   2.235   2.243 -0.2505  0.1291  0.1159
  151DMF     N1 2291   0.203   2.342   2.250 -0.2406 -0.3157  0.0000
  151DMF     C2 2292   0.335   2.301   2.291 -0.0109  0.3623  0.1424
  151DMF     C3 2293   0.168   2.476   2.226  0.4180  0.0416  0.1141
  151DMF     O1 2294   0.055   2.511   2.184  0.2345  0.9825  0.1509
  151DMF     H1 2295   0.082   2.201   2.345  0.6056 -1.0318 -0.0667
  151DMF     H2 2296   0.153   2.155   2.185  1.8227  0.3144  1.5122
  151DMF     H3 2297   0.011   2.266   2.195 -0.1887  0.3058  0.1096
  151DMF     H4 2298   0.315   2.245   2.383  0.5544 -0.8687 -0.4662
  151DMF     H5 2299   0.411   2.376   2.313  1.2439 -0.6940 -0.5278
  151DMF     H6 2300   0.378   2.234   2.215 -0.7430  0.6753 -0.5613
  151DMF     H7 2301   0.249   2.548   2.246  1.0376 -0.6563  0.1501
  152DMF     C1 2302   3.174   1.025   2.242  0.5955 -0.1220  0.3958
  152DMF     N1 2303   3.025   1.033   2.222 -0.2681 -0.1388  0.4860
  152DMF     C2 2304   2.950   0.913   2.224 -0.1978 -0.5624  0.0152
  152DMF     C3 2305   2.959   1.156   2.214 -0.0971  0.1070 -0.4004
  152DMF     O1 2306   3.020   1.264   2.220 -0.2148 -0.1934 -0.3468
  152DMF     H1 2307   3.215   1.103   2.177 -0.6164  0.9948  0.9405
  152DMF     H2 2308   3.204   0.925   2.208 -0.6820 -0.1650 -0.6354
  152DMF     H3 2309   3.205   1.046   2.345  2.2790  0.9696 -0.2988
  152DMF     H4 2310   2.852   0.939   2.184 -0.2807 -0.9992 -0.0741
  152DMF     H5 2311   2.942   0.888   2.330 -0.2247  0.7740  0.3349
  152DMF     H6 2312   3.000   0.829   2.173 -1.0276  0.4028 -2.4584
  152DMF     H7 2313   2.851   1.148   2.192  0.2725  1.5481 -2.9458
  153DMF     C1 2314   2.667   1.504   1.052 -0.3373  0.2096 -0.8633
  153DMF     N1 2315   2.561   1.584   1.115  0.4351  0.6212  0.1103
  153DMF     C2 2316   2.437   1.530   1.169  0.6012  0.2500  0.1001
  153DMF     C3 2317   2.586   1.725   1.128  0.8678  0.3017  0.5125
  153DMF     O1 2318   2.691   1.778   1.095 -0.0536  0.3956 -0.2897
  153DMF     H1 2319   2.714   1.561   0.971  0.0623  0.2395 -0.6063
  153DMF     H2 2320   2.627   1.414   1.003  2.7524 -1.5369 -0.2946
  153DMF     H3 2321   2.749   1.481   1.120 -1.7445  0.8354  1.0947
  153DMF     H4 2322   2.439   1.421   1.172  2.5099  0.3200  3.6251
  153DMF     H5 2323   2.356   1.565   1.103 -0.0447 -2.5942 -0.6593
  153DMF     H6 2324   2.415   1.564   1.271  0.6664  0.7138 -0.0365
  153DMF     H7 2325   2.504   1.776   1.182 -0.5308 -0.8194 -0.5172
  154DMF     C1 2326   0.041   2.538   1.162  0.5285 -0.7402 -0.5441
  154DMF     N1 2327   0.121   2.429   1.211  0.3006  0.1493 -0.4265
  154DMF     C2 2328   0.263   2.458   1.240  0.5136 -0.4696  0.7713
  154DMF     C3 2329   0.076   2.300   1.224  0.3387 -0.3883 -0.5423
  154DMF     O1 2330  -0.037   2.264   1.187  0.3131 -0.3363  0.3609
  154DMF     H1 2331   0.075   2.584   1.068  1.6810  1.3172  0.8490
  154DMF     H2 2332   0.030   2.615   1.239 -0.3837 -0.8500 -0.5590
  154DMF     H3 2333  -0.062   2.503   1.148 -1.2048  3.3733  1.1269
  154DMF     H4 2334   0.305   2.375   1.299 -1.3155 -2.5642 -0.8049
  154DMF     H5 2335   0.273   2.556   1.289 -0.4033 -0.4189  0.8636
  154DMF     H6 2336   0.318   2.468   1.146  0.8425  0.1552  1.0264
  154DMF     H7 2337   0.145   2.227   1.271 -0.1602 -1.4268 -1.4020
  155DMF     C1 2338   0.739   0.713   1.252 -0.0293 -0.1037  0.9704
  155DMF     N1 2339   0.746   0.592   1.167  0.2174 -0.1469 -0.3990
  155DMF     C2 2340   0.860   0.574   1.078  0.1794  0.2093  0.3967
  155DMF     C3 2341   0.650   0.486   1.184  0.2831 -0.1162 -0.0682
  155DMF     O1 2342   0.554   0.494   1.258 -0.1954 -0.0336  0.4480
  155DMF     H1 2343   0.836   0.765   1.251  0.2779 -0.6567 -1.3141
  155DMF     H2 2344   0.701   0.692   1.353  1.4597  0.2057  1.6090
  155DMF     H3 2345   0.678   0.780   1.191 -0.7039  0.5546  2.3398
  155DMF     H4 2346   0.942   0.518   1.125 -0.5545 -1.1313  0.1135
  155DMF     H5 2347   0.899   0.671   1.047 -0.4836 -0.0883 -1.4499
  155DMF     H6 2348   0.823   0.529   0.985 -2.4769  3.3515 -0.1270
  155DMF     H7 2349   0.679   0.400   1.120  0.9698  1.5332 -2.0161
  156DMF     C1 2350   2.721   0.227   3.638 -0.3040  0.2911 -0.3069
  156DMF     N1 2351   2.802   0.338   3.585  0.0150 -0.1853  0.6520
  156DMF     C2 2352   2.744   0.482   3.606  0.2629 -0.5373  0.1458
  156DMF     C3 2353   2.906   0.320   3.491  0.2183  0.1649  0.2810
  156DMF     O1 2354   2.962   0.217   3.462 -0.0054  0.3662  0.6205
  156DMF     H1 2355   2.749   0.129   3.598  0.6939  0.8988 -1.1108
  156DMF     H2 2356   2.613   0.236   3.618 -0.4133  1.0017  0.5814
  156DMF     H3 2357   2.718   0.222   3.748  0.8160  0.0807 -0.2795
  156DMF     H4 2358   2.690   0.483   3.702  1.0714 -0.5184  0.6022
  156DMF     H5 2359   2.672   0.523   3.534  1.8753  1.7169 -0.2188
  156DMF     H6 2360   2.822   0.558   3.600 -0.5474  0.1960 -1.2605
  156DMF     H7 2361   2.942   0.418   3.454 -1.7964  0.6012 -0.5894
  157DMF     C1 2362   1.529   1.859   0.610 -0.4001 -0.3312  0.0128
  157DMF     N1 2363   1.464   1.882   0.477 -0.0156 -0.0448 -0.3083
  157DMF     C2 2364   1.319   1.913   0.482 -0.4838  0.5830 -0.3059
  157DMF     C3 2365   1.534   1.864   0.350 -0.9464  0.2122  0.5284
  157DMF     O1 2366   1.651   1.847   0.325 -0.1300  0.2873  0.1315
  157DMF     H1 2367   1.635   1.837   0.591 -0.3942 -0.9667  0.7427
  157DMF     H2 2368   1.480   1.773   0.657  1.4008 -1.8846 -0.8753
  157DMF     H3 2369   1.519   1.954   0.662 -0.9716 -0.2590 -0.2337
  157DMF     H4 2370   1.303   2.000   0.418  0.3141 -0.4123 -1.8707
  157DMF     H5 2371   1.281   1.922   0.585 -1.8170 -0.4773 -0.6910
  157DMF     H6 2372   1.255   1.835   0.438  0.3686 -1.3673  1.8216
  157DMF     H7 2373   1.456   1.851   0.272 -0.0813 -0.0677 -0.2941
  158DMF     C1 2374   0.238   0.487   1.097 -0.6069  0.1876  0.0910
  158DMF     N1 2375   0.097   0.522   1.101 -0.4445 -0.0650 -0.2257
  158DMF     C2 2376   0.029   0.487   1.221  0.7821 -0.4740  0.1060
  158DMF     C3 2377   0.036   0.587   0.989  0.6156  0.7090 -0.2936
  158DMF     O1 2378   0.094   0.621   0.894 -0.4458  0.3044  0.0117
  158DMF     H1 2379   0.261   0.420   1.181  0.3978  2.2907  1.5305
  158DMF     H2 2380   0.312   0.567   1.107  1.9165 -1.8216 -1.7476
  158DMF     H3 2381   0.257   0.436   1.002  1.0450  0.3643  0.3159
  158DMF     H4 2382   0.074   0.540   1.305 -2.0013  0.9522  0.7720
  158DMF     H5 2383   0.034   0.378   1.236 -2.7122 -1.0949 -2.4327
  158DMF     H6 2384  -0.080   0.500   1.216  0.9999  0.9799 -1.2959
  158DMF     H7 2385  -0.074   0.586   1.000  0.5872  1.9995 -0.3502
  159DMF     C1 2386   1.335   0.742   2.758 -0.1433 -0.0408 -0.3469
  159DMF     N1 2387   1.186   0.741   2.759 -0.1615 -0.3444  0.0067
  159DMF     C2 2388   1.118   0.630   2.693 -0.1646  0.4123 -0.7379
  159DMF     C3 2389   1.111   0.846   2.823 -0.5144  0.8600 -0.1169
  159DMF     O1 2390   1.159   0.952   2.854 -0.0513  0.6126  0.1591
  159DMF     H1 2391   1.372   0.658   2.818 -1.4191 -1.2130 -1.1585
  159DMF     H2 2392   1.373   0.837   2.798  3.2847 -0.4193 -2.4624
  159DMF     H3 2393   1.374   0.731   2.656  0.6136  0.8248 -0.1592
  159DMF     H4 2394   1.162   0.539   2.737  0.9069 -0.2498 -3.0521
  159DMF     H5 2395   1.127   0.640   2.584 -0.9734  0.2239 -0.8240
  159DMF     H6 2396   1.012   0.634   2.718  0.2625  0.3364  1.1333
  159DMF     H7 2397   1.003   0.824   2.836 -0.1574  0.2862  2.0563
  160DMF     C1 2398   0.715   0.929   2.589 -0.0298  0.6755  0.1560
  160DMF     N1 2399   0.615   0.883   2.693  0.4084 -0.1431 -1.0895
  160DMF     C2 2400   0.473   0.855   2.650 -0.1878  0.2771  0.0561
  160DMF     C3 2401   0.651   0.857   2.824 -0.1762  0.2091 -0.2652
  160DMF     O1 2402   0.765   0.852   2.863  0.1620 -0.0857 -0.7248
  160DMF     H1 2403   0.764   0.845   2.539  0.0941  2.5431 -2.9644
  160DMF     H2 2404   0.785   0.998   2.638 -0.5792  0.6739  0.9594
  160DMF     H3 2405   0.651   0.983   2.518 -0.0666  2.6736  1.6669
  160DMF     H4 2406   0.422   0.807   2.734 -0.1958  0.5706  0.2196
  160DMF     H5 2407   0.473   0.802   2.554 -1.4925 -1.9457  1.2368
  160DMF     H6 2408   0.434   0.957   2.641 -0.3674  0.2566  0.5960
  160DMF     H7 2409   0.568   0.829   2.891  1.5453 -1.0950  1.3859
  161DMF     C1 2410   1.995   1.569   1.542  0.2682 -0.4204  0.0319
  161DMF     N1 2411   1.897   1.679   1.523  0.3010 -0.5835 -0.6127
  161DMF     C2 2412   1.756   1.646   1.525 -0.0015 -0.2857  0.9253
  161DMF     C3 2413   1.941   1.811   1.516  0.2833 -0.1391 -0.1963
  161DMF     O1 2414   2.056   1.845   1.499  0.3920  0.3607 -0.3402
  161DMF     H1 2415   1.974   1.501   1.625 -1.0934  0.3364  0.3394
  161DMF     H2 2416   2.097   1.608   1.555 -0.0036  0.4563 -0.3604
  161DMF     H3 2417   2.014   1.502   1.457  2.8079  3.0918 -2.3139
  161DMF     H4 2418   1.757   1.538   1.545 -0.2809 -0.2049  1.3821
  161DMF     H5 2419   1.703   1.673   1.433  2.2755  1.7620  0.1623
  161DMF     H6 2420   1.710   1.702   1.607  2.3558  1.5512  1.0408
  161DMF     H7 2421   1.860   1.886   1.528  0.9109  0.2567  1.8930
  162DMF     C1 2422   2.578   3.127   1.581 -0.4968 -0.5010  0.0822
  162DMF     N1 2423   2.696   3.189   1.515 -0.1716  0.2199 -0.3175
  162DMF     C2 2424   2.697   3.339   1.514 -0.1558 -0.7786 -0.5370
  162DMF     C3 2425   2.806   3.110   1.482 -0.0876  0.7763  0.3738
  162DMF     O1 2426   2.819   2.997   1.526 -0.0870  0.4658 -0.6870
  162DMF     H1 2427   2.507   3.080   1.511 -0.5676 -1.7125  0.9606
  162DMF     H2 2428   2.518   3.203   1.633 -2.7095 -2.5324  0.5973
  162DMF     H3 2429   2.602   3.059   1.663 -0.0624 -0.0710  0.3115
  162DMF     H4 2430   2.679   3.395   1.606  0.5135  3.4243 -2.8427
  162DMF     H5 2431   2.630   3.383   1.440  1.0391 -0.1768 -1.2587
  162DMF     H6 2432   2.798   3.355   1.473 -0.9958  0.9457 -1.9752
  162DMF     H7 2433   2.880   3.162   1.417 -0.2920  0.6866  0.0688
  163DMF     C1 2434   1.043   2.528   3.764  0.4059  0.0644  0.7683
  163DMF     N1 2435   1.047   2.392   3.820 -0.1212  0.3710  0.0440
  163DMF     C2 2436   1.185   2.337   3.826  0.1011  0.4569 -0.0302
  163DMF     C3 2437   0.927   2.315   3.834  0.4230  0.3383 -0.0606
  163DMF     O1 2438   0.817   2.349   3.799  0.4317 -0.0020 -0.3326
  163DMF     H1 2439   0.953   2.536   3.701 -0.9359  1.1365  2.7507
  163DMF     H2 2440   1.124   2.536   3.691  0.4470 -1.3414  0.6486
  163DMF     H3 2441   1.034   2.609   3.837 -1.8351  0.1934  0.3767
  163DMF     H4 2442   1.195   2.253   3.896  2.0490  1.6909  1.1972
  163DMF     H5 2443   1.258   2.416   3.846  0.3187  0.3081 -0.2401
  163DMF     H6 2444   1.201   2.300   3.723 -1.7107  1.7572 -0.8030
  163DMF     H7 2445   0.948   2.211   3.866  1.9624  0.5054 -0.5319
  164DMF     C1 2446   1.058   3.199   3.143 -0.3872 -0.0527  0.4511
  164DMF     N1 2447   0.985   3.073   3.137  0.0998  0.6729 -0.0155
  164DMF     C2 2448   1.010   2.978   3.242 -0.2428  0.1232 -0.5308
  164DMF     C3 2449   0.934   3.027   3.009 -0.0280 -0.4571 -0.4503
  164DMF     O1 2450   0.929   3.101   2.910 -0.5553  0.0358  0.6081
  164DMF     H1 2451   1.098   3.218   3.244 -0.3999  0.3908  0.3741
  164DMF     H2 2452   0.991   3.285   3.129  1.5416  1.3344 -0.4050
  164DMF     H3 2453   1.133   3.207   3.063 -0.2892 -2.2640  0.3016
  164DMF     H4 2454   1.052   3.033   3.327 -1.0413 -1.1092  0.6996
  164DMF     H5 2455   1.070   2.894   3.204 -0.6458 -0.8214  0.8695
  164DMF     H6 2456   0.918   2.927   3.273 -1.1683  1.3490 -1.2442
  164DMF     H7 2457   0.912   2.919   3.004 -0.2726 -0.4043 -0.5233
  165DMF     C1 2458   2.416   2.578   1.218  0.3609 -0.3945 -0.2641
  165DMF     N1 2459   2.440   2.538   1.077 -0.1013  0.1135 -0.0613
  165DMF     C2 2460   2.407   2.396   1.047 -0.0381 -0.0595 -0.1618
  165DMF     C3 2461   2.497   2.629   0.985 -0.1694  0.5169 -0.0696
  165DMF     O1 2462   2.518   2.743   1.015 -0.0889 -0.4849 -0.0274
  165DMF     H1 2463   2.327   2.641   1.224 -0.1073 -0.7871 -2.6376
  165DMF     H2 2464   2.501   2.641   1.249 -0.1269  1.4692 -2.5782
  165DMF     H3 2465   2.404   2.488   1.280  0.0425 -0.7023 -0.7697
  165DMF     H4 2466   2.395   2.366   0.942  3.3865  0.8088 -0.8827
  165DMF     H5 2467   2.313   2.373   1.098 -0.7022  0.4332 -1.1594
  165DMF     H6 2468   2.481   2.329   1.092 -1.2263 -0.1385  1.7228
  165DMF     H7 2469   2.516   2.586   0.885 -0.5564 -0.1187  0.1271
  166DMF     C1 2470   0.599   0.036   3.228  0.4075 -0.4872 -0.4266
  166DMF     N1 2471   0.586  -0.053   3.115 -0.1346  0.4094  0.6170
  166DMF     C2 2472   0.693  -0.147   3.084  0.7779 -0.2015 -0.5117
  166DMF     C3 2473   0.466  -0.057   3.033  0.1659 -0.2691  0.1066
  166DMF     O1 2474   0.372   0.008   3.075  0.7989  0.2565 -0.1216
  166DMF     H1 2475   0.700   0.023   3.266  0.2506  2.1420  1.0480
  166DMF     H2 2476   0.524   0.022   3.307 -0.0652  0.0972 -0.7622
  166DMF     H3 2477   0.595   0.138   3.186 -0.4041 -0.4761 -0.3398
  166DMF     H4 2478   0.791  -0.098   3.070  1.0031 -0.3842  0.3703
  166DMF     H5 2479   0.662  -0.205   2.996 -1.6728  1.1727 -0.5900
  166DMF     H6 2480   0.699  -0.210   3.174 -2.0184  0.4074  0.1609
  166DMF     H7 2481   0.466  -0.127   2.948 -1.2552  0.1523 -0.2593
  167DMF     C1 2482   2.612   1.307   3.521  0.5779  0.2131  0.1720
  167DMF     N1 2483   2.509   1.240   3.433  0.1612 -0.3264  0.4178
  167DMF     C2 2484   2.513   1.266   3.293 -0.0383 -0.7772  0.4234
  167DMF     C3 2485   2.399   1.166   3.487 -0.0655  0.1488 -0.5742
  167DMF     O1 2486   2.390   1.148   3.609  0.2616  0.2725  0.0652
  167DMF     H1 2487   2.698   1.314   3.453  0.0963  1.4071 -0.3226
  167DMF     H2 2488   2.638   1.247   3.609 -0.0858  2.2087  1.7706
  167DMF     H3 2489   2.570   1.407   3.534 -1.2738 -0.2721 -1.6713
  167DMF     H4 2490   2.410   1.251   3.258  0.8069 -1.0620 -1.9816
  167DMF     H5 2491   2.582   1.209   3.230  1.3050  0.5130  0.6978
  167DMF     H6 2492   2.536   1.373   3.281 -3.6597  0.6076  4.4859
  167DMF     H7 2493   2.340   1.109   3.413 -1.6612 -0.7123  1.3209
  168DMF     C1 2494   1.673   2.867   0.631  0.2223 -0.6478 -1.1120
  168DMF     N1 2495   1.599   2.814   0.748  0.1825  0.6057  0.2305
  168DMF     C2 2496   1.592   2.665   0.758 -0.8393  0.8930  0.5373
  168DMF     C3 2497   1.533   2.889   0.839  0.4035 -1.4101  0.4992
  168DMF     O1 2498   1.524   3.011   0.831 -0.5144 -0.0616 -0.6153
  168DMF     H1 2499   1.647   2.807   0.543 -3.1757  0.7726 -1.1402
  168DMF     H2 2500   1.782   2.863   0.646  0.0424  0.6175  0.7725
  168DMF     H3 2501   1.647   2.972   0.617  0.6696 -0.2055  1.1617
  168DMF     H4 2502   1.572   2.630   0.860  0.5411  0.6748  0.7472
  168DMF     H5 2503   1.694   2.628   0.748 -0.9829  0.7574 -0.3992
  168DMF     H6 2504   1.526   2.622   0.682 -1.2421 -1.8039  2.3365
  168DMF     H7 2505   1.481   2.832   0.918 -2.0896 -0.6636 -0.5612
  169DMF     C1 2506   0.097   1.938   1.191  0.6703  0.7042  0.5731
  169DMF     N1 2507  -0.021   1.960   1.116 -0.2947 -0.7845 -0.3841
  169DMF     C2 2508  -0.011   1.989   0.972 -0.6824 -0.2264 -0.3454
  169DMF     C3 2509  -0.141   1.989   1.183  0.0230 -0.0947 -0.2422
  169DMF     O1 2510  -0.144   1.980   1.307 -0.3890 -1.4275 -0.2582
  169DMF     H1 2511   0.183   1.945   1.123 -0.7451  2.4541 -1.1072
  169DMF     H2 2512   0.096   1.837   1.234  0.5216  0.2326 -0.5170
  169DMF     H3 2513   0.111   2.015   1.268  1.1049  1.7353 -0.5106
  169DMF     H4 2514  -0.008   2.098   0.957  0.6492 -0.1972  0.0770
  169DMF     H5 2515  -0.094   1.945   0.916 -2.0209  0.1661  1.2751
  169DMF     H6 2516   0.080   1.944   0.932 -0.4484  2.0832 -2.5253
  169DMF     H7 2517  -0.225   2.004   1.113 -0.1334 -2.3808 -0.5892
  170DMF     C1 2518   0.636   1.127   1.557  0.0011 -0.0810  0.3897
  170DMF     N1 2519   0.757   1.217   1.548 -0.5451 -0.8550  0.4515
  170DMF     C2 2520   0.877   1.152   1.535 -0.5148 -0.4080 -0.0361
  170DMF     C3 2521   0.748   1.356   1.565 -0.0042 -0.0052 -0.6362
  170DMF     O1 2522   0.636   1.414   1.588 -0.0312 -0.1776  0.1596
  170DMF     H1 2523   0.666   1.044   1.621  0.8059 -0.0327  0.0709
  170DMF     H2 2524   0.606   1.089   1.459 -0.7452 -2.0157  1.3466
  170DMF     H3 2525   0.552   1.186   1.597  1.0791  0.0087  2.6058
  170DMF     H4 2526   0.854   1.055   1.489 -0.7295  0.0145 -0.8483
  170DMF     H5 2527   0.914   1.138   1.637  0.9825 -1.8816 -0.7658
  170DMF     H6 2528   0.943   1.215   1.474 -1.0033 -0.0443 -0.1882
  170DMF     H7 2529   0.845   1.407   1.556 -0.9811  1.7869 -1.2310
  171DMF     C1 2530   1.688   1.496   0.658 -0.2803  0.0936  0.1345
  171DMF     N1 2531   1.750   1.524   0.527 -0.2960 -0.4097  0.3794
  171DMF     C2 2532   1.853   1.632   0.505  0.4289 -0.2483 -0.1523
  171DMF     C3 2533   1.703   1.452   0.414  0.7490 -0.0915  0.1592
  171DMF     O1 2534   1.610   1.370   0.416 -0.0393  0.0205 -0.0262
  171DMF     H1 2535   1.719   1.565   0.737  0.7952 -2.1511  1.7329
  171DMF     H2 2536   1.727   1.397   0.684 -0.8539  0.2290  1.5759
  171DMF     H3 2537   1.580   1.485   0.639 -0.0070 -1.2368 -0.7113
  171DMF     H4 2538   1.818   1.715   0.567  1.0396 -0.3672  0.3475
  171DMF     H5 2539   1.840   1.667   0.401  0.1073 -1.4175 -0.5179
  171DMF     H6 2540   1.948   1.590   0.540  0.2151  0.2530  1.0533
  171DMF     H7 2541   1.746   1.474   0.315 -0.5154 -0.6541 -0.5179
  172DMF     C1 2542   1.049   0.953   0.255  0.2475 -0.5784  0.1100
  172DMF     N1 2543   0.929   1.041   0.276 -0.1016  0.3767 -0.6360
  172DMF     C2 2544   0.822   1.050   0.168  0.2624 -0.6621  0.0089
  172DMF     C3 2545   0.911   1.099   0.400  0.2319 -0.0547  0.4879
  172DMF     O1 2546   0.996   1.088   0.487  0.0382  0.5086 -0.2562
  172DMF     H1 2547   1.059   0.881   0.338  0.6900 -0.6296  0.0122
  172DMF     H2 2548   1.141   1.011   0.248  0.5693 -1.1261 -0.1416
  172DMF     H3 2549   1.046   0.893   0.164  1.6300  0.4819 -0.6474
  172DMF     H4 2550   0.734   0.988   0.192 -1.4265  1.9612  0.7410
  172DMF     H5 2551   0.856   1.020   0.068  0.2655  0.0983 -0.2187
  172DMF     H6 2552   0.801   1.157   0.165  2.1938 -0.2881 -0.9677
  172DMF     H7 2553   0.815   1.153   0.407 -1.0985 -2.0966 -1.2527
  173DMF     C1 2554   2.870   0.440   0.707 -0.1866  0.5101  0.1091
  173DMF     N1 2555   2.973   0.345   0.737  0.2473  0.3267 -0.6779
  173DMF     C2 2556   2.945   0.197   0.692 -0.0981  0.1552 -0.2693
  173DMF     C3 2557   3.082   0.377   0.822  0.1649  0.1346  1.1947
  173DMF     O1 2558   3.108   0.488   0.859  0.1108 -0.0997 -0.1274
  173DMF     H1 2559   2.799   0.460   0.788  0.7241  1.1264  0.7605
  173DMF     H2 2560   2.810   0.422   0.617 -1.9089 -0.0513  1.3404
  173DMF     H3 2561   2.921   0.535   0.686 -1.2897  1.2382  0.6617
  173DMF     H4 2562   3.034   0.136   0.715  1.1525  0.9283 -2.8474
  173DMF     H5 2563   2.919   0.194   0.585 -1.0708  0.2783 -0.0373
  173DMF     H6 2564   2.858   0.157   0.745  0.1749 -1.1125 -0.7436
  173DMF     H7 2565   3.141   0.286   0.845 -3.0780 -2.2070  0.7709
  174DMF     C1 2566   1.883   2.323   2.231 -0.0065 -0.1584 -0.1296
  174DMF     N1 2567   1.940   2.459   2.255 -0.9436 -0.1369 -0.4664
  174DMF     C2 2568   2.084   2.475   2.245  0.2907  0.6185 -0.0823
  174DMF     C3 2569   1.850   2.567   2.262  0.0981  0.7081 -0.2836
  174DMF     O1 2570   1.729   2.555   2.264  0.1072  0.6405 -0.7309
  174DMF     H1 2571   1.793   2.331   2.169 -0.9407  1.1926  1.3543
  174DMF     H2 2572   1.861   2.288   2.333  1.2856  0.8790  0.5306
  174DMF     H3 2573   1.959   2.257   2.188  1.2775  0.7677  0.6554
  174DMF     H4 2574   2.122   2.570   2.286  1.3777  0.5831 -0.9735
  174DMF     H5 2575   2.115   2.478   2.140 -0.4744  1.0287 -0.2992
  174DMF     H6 2576   2.136   2.397   2.302 -0.1114 -0.6018 -1.3720
  174DMF     H7 2577   1.896   2.668   2.259  3.4753 -0.7540  0.0842
  175DMF     C1 2578   1.533   2.902   1.226  0.2814 -0.4698  1.3283
  175DMF     N1 2579   1.483   3.034   1.165 -0.6278  0.8165  0.0451
  175DMF     C2 2580   1.563   3.161   1.193  0.1651  0.6415  0.1451
  175DMF     C3 2581   1.364   3.042   1.100 -0.1927  0.5417 -0.5552
  175DMF     O1 2582   1.291   2.949   1.098 -0.0389 -0.1424 -0.9685
  175DMF     H1 2583   1.642   2.905   1.242  1.0939  0.4291 -3.6603
  175DMF     H2 2584   1.518   2.821   1.153 -0.5326 -0.8062  1.8661
  175DMF     H3 2585   1.471   2.876   1.312  0.6191 -0.1283  1.6781
  175DMF     H4 2586   1.632   3.149   1.277 -1.4552  0.3216  1.4661
  175DMF     H5 2587   1.491   3.243   1.208  0.2196  0.6309  0.4774
  175DMF     H6 2588   1.638   3.176   1.115 -0.2041 -1.8625 -0.7106
  175DMF     H7 2589   1.337   3.140   1.057 -0.1335  0.7058 -0.2206
  176DMF     C1 2590   3.055   0.355   2.301 -0.2292 -0.0817  0.0714
  176DMF     N1 2591   2.919   0.372   2.258  0.3281  0.7053 -0.0107
  176DMF     C2 2592   2.821   0.263   2.272 -0.2623  0.0646  0.7299
  176DMF     C3 2593   2.870   0.501   2.242 -0.4642 -0.4117 -0.2743
  176DMF     O1 2594   2.932   0.607   2.269 -0.4831 -0.6880 -0.7940
  176DMF     H1 2595   3.133   0.428   2.275  0.8414 -0.7937  1.2208
  176DMF     H2 2596   3.085   0.261   2.253 -1.6585 -0.1907 -0.6318
  176DMF     H3 2597   3.053   0.333   2.409 -2.1616  2.6316  0.6485
  176DMF     H4 2598   2.843   0.206   2.363  1.1551 -0.2590  0.1992
  176DMF     H5 2599   2.827   0.200   2.182 -2.4875  1.4470 -0.4238
  176DMF     H6 2600   2.721   0.306   2.287 -1.5360 -3.0985  1.6129
  176DMF     H7 2601   2.767   0.505   2.202 -0.4107  3.2969 -0.1879
  177DMF     C1 2602   0.438   0.331   2.991  0.0770 -0.3862  0.3680
  177DMF     N1 2603   0.576   0.343   2.932  0.0856  0.6453  0.3360
  177DMF     C2 2604   0.662   0.228   2.927 -0.5205 -0.0762 -0.2257
  177DMF     C3 2605   0.625   0.462   2.896  0.0609 -0.1620  0.2991
  177DMF     O1 2606   0.552   0.565   2.897  0.1546  0.1717 -0.3644
  177DMF     H1 2607   0.374   0.274   2.923  0.7580  0.8628 -1.3337
  177DMF     H2 2608   0.406   0.430   3.027  3.1486  1.1354 -0.9708
  177DMF     H3 2609   0.451   0.270   3.082  1.6107  2.5466  2.2012
  177DMF     H4 2610   0.605   0.137   2.946 -0.8609  0.4568  1.4262
  177DMF     H5 2611   0.748   0.237   2.995 -0.6840 -2.8965  0.4327
  177DMF     H6 2612   0.687   0.220   2.821  1.6089  0.2534  0.2249
  177DMF     H7 2613   0.731   0.465   2.868  0.2908  2.3856  1.2818
  178DMF     C1 2614   2.810   0.364   3.063 -0.0260 -1.1193  0.1712
  178DMF     N1 2615   2.786   0.502   3.115 -0.2074  0.0193  0.4665
  178DMF     C2 2616   2.876   0.616   3.079  0.4747  0.2229 -0.3057
  178DMF     C3 2617   2.695   0.526   3.222  0.7786 -0.3157  0.1577
  178DMF     O1 2618   2.605   0.445   3.249  0.5270 -0.6912  0.0227
  178DMF     H1 2619   2.859   0.376   2.966 -1.2192  0.5770 -0.2392
  178DMF     H2 2620   2.714   0.314   3.051 -0.5367 -0.3923  1.1630
  178DMF     H3 2621   2.891   0.308   3.113  0.8114 -0.6101 -0.5951
  178DMF     H4 2622   2.938   0.638   3.167  0.6377  0.8645 -0.5827
  178DMF     H5 2623   2.815   0.705   3.060 -0.9040 -0.8315 -0.8857
  178DMF     H6 2624   2.936   0.598   2.989 -0.2824  3.2271 -1.4453
  178DMF     H7 2625   2.718   0.621   3.275 -2.2718  0.2374  0.5525
  179DMF     C1 2626   1.696   2.350   2.550  0.2877  0.5669  0.0351
  179DMF     N1 2627   1.621   2.441   2.642 -0.1878 -0.5358  0.3434
  179DMF     C2 2628   1.545   2.553   2.591 -0.4924  0.1758  0.2091
  179DMF     C3 2629   1.619   2.414   2.777 -0.1429  0.1843  0.1360
  179DMF     O1 2630   1.699   2.340   2.828  0.0784  0.2073 -0.1180
  179DMF     H1 2631   1.801   2.358   2.579 -0.1258  2.6948  1.0713
  179DMF     H2 2632   1.674   2.378   2.446 -1.4277 -0.6565  0.0466
  179DMF     H3 2633   1.652   2.250   2.543 -1.0551  1.2245 -1.3288
  179DMF     H4 2634   1.537   2.632   2.667 -1.0932 -0.6802  1.0394
  179DMF     H5 2635   1.445   2.524   2.557 -1.1636  2.1784  0.4134
  179DMF     H6 2636   1.597   2.606   2.510  0.6398  0.5358  1.1544
  179DMF     H7 2637   1.537   2.463   2.833 -0.5625  0.8480 -1.0439
  180DMF     C1 2638   2.401   0.290   0.838  0.1422 -0.4048  0.2798
  180DMF     N1 2639   2.490   0.311   0.715 -0.0506  0.0677 -0.2826
  180DMF     C2 2640   2.544   0.189   0.649  0.5550 -0.2575 -0.1661
  180DMF     C3 2641   2.524   0.441   0.661  0.9233  0.3426 -0.7718
  180DMF     O1 2642   2.488   0.543   0.714 -0.2151  0.5156 -0.4060
  180DMF     H1 2643   2.463   0.301   0.927 -0.5918 -0.7370  0.8374
  180DMF     H2 2644   2.352   0.192   0.841 -1.7899  0.5815  1.8359
  180DMF     H3 2645   2.320   0.365   0.842 -0.4304 -0.8396 -2.2401
  180DMF     H4 2646   2.504   0.094   0.686  2.1051 -0.6853  0.4265
  180DMF     H5 2647   2.653   0.187   0.648  0.6588  2.6219  0.2617
  180DMF     H6 2648   2.512   0.195   0.544  0.8789  2.4885 -0.1436
  180DMF     H7 2649   2.583   0.433   0.568 -0.0379 -0.7503 -1.2951
  181DMF     C1 2650   2.206   0.438   2.943  0.9159 -0.0047 -0.2698
  181DMF     N1 2651   2.275   0.414   3.076  0.2841 -0.8503  0.3989
  181DMF     C2 2652   2.255   0.517   3.182 -0.7420  0.0341 -1.1276
  181DMF     C3 2653   2.351   0.303   3.105 -0.0094 -0.5016 -0.2972
  181DMF     O1 2654   2.359   0.212   3.022  0.4624 -0.7460  0.0945
  181DMF     H1 2655   2.220   0.544   2.918 -0.3215 -0.2225 -1.9156
  181DMF     H2 2656   2.102   0.405   2.947  1.5472 -1.9388  1.1255
  181DMF     H3 2657   2.254   0.369   2.872 -4.0240 -2.8755 -1.0439
  181DMF     H4 2658   2.300   0.482   3.275  0.3880  3.3896 -0.3320
  181DMF     H5 2659   2.150   0.548   3.184 -0.3006  1.5597  0.9155
  181DMF     H6 2660   2.323   0.595   3.145  0.5227 -0.5261 -0.0060
  181DMF     H7 2661   2.403   0.294   3.203  0.4356  0.2151 -0.4638
  182DMF     C1 2662   0.895   2.576   1.062  0.7649  0.4486  0.5564
  182DMF     N1 2663   1.025   2.615   1.110 -0.1545  0.3286 -0.2323
  182DMF     C2 2664   1.055   2.757   1.122 -0.4394  0.4651  0.0332
  182DMF     C3 2665   1.129   2.522   1.135  0.5085 -0.6562 -0.0970
  182DMF     O1 2666   1.114   2.407   1.127  0.2951  0.4433 -0.4450
  182DMF     H1 2667   0.886   2.555   0.955 -2.2236 -1.0542  1.0720
  182DMF     H2 2668   0.813   2.645   1.086 -1.0443 -0.4237 -2.8094
  182DMF     H3 2669   0.863   2.480   1.104 -1.5308  1.7708  1.9448
  182DMF     H4 2670   0.965   2.817   1.141  0.1449  1.2085  0.4714
  182DMF     H5 2671   1.091   2.796   1.026  3.1610 -1.7363  0.4026
  182DMF     H6 2672   1.131   2.776   1.199 -1.0225 -1.8424  1.1962
  182DMF     H7 2673   1.227   2.562   1.168 -0.4326  0.0263  1.9529
  183DMF     C1 2674   0.382   0.532   0.759  0.2742 -0.1672  0.4981
  183DMF     N1 2675   0.501   0.607   0.723 -0.5203  0.3456 -0.5245
  183DMF     C2 2676   0.488   0.734   0.666 -0.4555  0.2664 -0.4313
  183DMF     C3 2677   0.636   0.556   0.746  0.6200 -0.0272  0.2913
  183DMF     O1 2678   0.660   0.451   0.793  0.0467 -0.0415 -0.2534
  183DMF     H1 2679   0.351   0.476   0.669 -0.9996  2.8667 -1.0219
  183DMF     H2 2680   0.294   0.596   0.776  0.7074  1.3813 -2.7050
  183DMF     H3 2681   0.393   0.465   0.845 -2.4601 -0.4848  0.6673
  183DMF     H4 2682   0.492   0.728   0.557 -0.9818 -0.8343 -0.3926
  183DMF     H5 2683   0.562   0.808   0.701 -0.4530 -0.0142  0.1600
  183DMF     H6 2684   0.386   0.772   0.678 -1.3787 -1.8426 -1.4083
  183DMF     H7 2685   0.714   0.625   0.709  0.3352  0.7949  1.2185
  184DMF     C1 2686   0.049   0.045   0.817 -0.0060  0.2254 -0.0117
  184DMF     N1 2687   0.103   0.118   0.696 -0.3563 -0.6425 -0.5133
  184DMF     C2 2688   0.151   0.260   0.713 -0.6826 -0.3358  0.3532
  184DMF     C3 2689   0.114   0.051   0.573  0.1761  0.1778  0.1036
  184DMF     O1 2690   0.084  -0.068   0.560 -0.6289 -0.3211 -0.4809
  184DMF     H1 2691  -0.006   0.118   0.879 -0.0105  1.6492 -1.6598
  184DMF     H2 2692   0.135   0.007   0.874  0.0897  0.0875 -0.2516
  184DMF     H3 2693  -0.018  -0.032   0.779  1.7166 -1.8608  1.0789
  184DMF     H4 2694   0.061   0.319   0.734 -0.2583  1.0503 -1.6150
  184DMF     H5 2695   0.201   0.301   0.625 -1.8000  1.1114  0.3703
  184DMF     H6 2696   0.214   0.264   0.803  0.5764  1.4404 -0.5853
  184DMF     H7 2697   0.150   0.118   0.493  0.7751  0.3439  0.5157
  185DMF     C1 2698   1.207   3.409   2.528 -0.4500  0.6065 -0.2292
  185DMF     N1 2699   1.092   3.338   2.593  0.0030 -0.7760  0.2209
  185DMF     C2 2700   0.961   3.383   2.558 -0.2141 -0.7126  0.8323
  185DMF     C3 2701   1.115   3.225   2.671  0.0940 -1.0403 -0.0155
  185DMF     O1 2702   1.224   3.177   2.682 -0.7305 -0.2918  0.3984
  185DMF     H1 2703   1.263   3.454   2.612  1.0136  2.7707 -2.2934
  185DMF     H2 2704   1.171   3.493   2.468 -0.6933  0.6797  0.0183
  185DMF     H3 2705   1.277   3.341   2.477 -0.4759 -1.3393  2.2069
  185DMF     H4 2706   0.916   3.448   2.634 -1.5474 -0.5145 -0.1052
  185DMF     H5 2707   0.899   3.294   2.542 -1.6174  0.5292 -0.9104
  185DMF     H6 2708   0.975   3.438   2.464 -0.9566 -0.9113  0.6028
  185DMF     H7 2709   1.022   3.179   2.709 -0.7068  1.0287  0.5557
  186DMF     C1 2710   1.307   1.177   3.694 -0.4945  0.1387 -0.1697
  186DMF     N1 2711   1.300   1.319   3.674  0.6648 -0.0655  0.1529
  186DMF     C2 2712   1.421   1.384   3.714 -0.2200 -0.1793  0.6069
  186DMF     C3 2713   1.181   1.386   3.692 -0.2996  0.4653 -0.2161
  186DMF     O1 2714   1.077   1.323   3.700  0.1178  0.5670  0.0504
  186DMF     H1 2715   1.290   1.160   3.801  3.4976 -1.4920  0.3270
  186DMF     H2 2716   1.409   1.146   3.668 -0.2092  0.8502  0.0882
  186DMF     H3 2717   1.227   1.137   3.631 -1.5786  1.1375  0.5593
  186DMF     H4 2718   1.410   1.492   3.701 -0.2189 -0.0758  1.4267
  186DMF     H5 2719   1.505   1.339   3.659 -1.1452  2.5841 -3.2676
  186DMF     H6 2720   1.452   1.380   3.819 -0.0885 -0.2769  0.5659
  186DMF     H7 2721   1.191   1.493   3.715 -1.4998 -0.1251  3.3427
  187DMF     C1 2722   0.538   2.200   3.154  0.4254  0.6282  0.3500
  187DMF     N1 2723   0.590   2.063   3.127 -0.5155  0.6169 -0.2315
  187DMF     C2 2724   0.604   2.023   2.992  0.4671 -0.4042  0.2661
  187DMF     C3 2725   0.636   1.986   3.232 -0.1151  0.1447  0.2165
  187DMF     O1 2726   0.620   2.008   3.352  0.3834 -0.0350  0.2566
  187DMF     H1 2727   0.456   2.217   3.083  1.2821 -2.1166 -1.3941
  187DMF     H2 2728   0.618   2.272   3.135  1.3419 -0.5902 -0.5680
  187DMF     H3 2729   0.506   2.211   3.258  0.3043  1.9071  0.1795
  187DMF     H4 2730   0.600   1.915   2.975  1.1146 -0.6369  1.6120
  187DMF     H5 2731   0.704   2.049   2.955  0.1118  0.3706 -0.1656
  187DMF     H6 2732   0.530   2.067   2.923  1.2194 -0.6974 -0.7273
  187DMF     H7 2733   0.676   1.887   3.204  0.0977 -0.0838  1.2936
  188DMF     C1 2734   2.274   2.890   2.236 -0.3139 -0.5847 -0.2805
  188DMF     N1 2735   2.176   2.956   2.318  0.1944 -0.6116 -0.3498
  188DMF     C2 2736   2.138   3.096   2.287  0.0128 -0.4385 -0.0417
  188DMF     C3 2737   2.118   2.886   2.424  0.3116 -0.6846  0.4816
  188DMF     O1 2738   2.153   2.775   2.464 -0.4573  0.0544  0.3403
  188DMF     H1 2739   2.325   2.959   2.168 -0.4819 -1.6963 -1.5687
  188DMF     H2 2740   2.233   2.804   2.181 -1.4270  0.5184 -1.2104
  188DMF     H3 2741   2.346   2.845   2.306 -0.7514  1.1756  1.3260
  188DMF     H4 2742   2.228   3.160   2.285 -1.8413  2.2103 -3.4116
  188DMF     H5 2743   2.082   3.140   2.370 -1.8324 -0.7539 -1.1083
  188DMF     H6 2744   2.076   3.107   2.197  1.0727  0.4057 -0.6878
  188DMF     H7 2745   2.030   2.934   2.472  0.3594 -0.1723  0.0733
  189DMF     C1 2746   2.766   1.096   2.550 -0.3466  0.3534  0.0649
  189DMF     N1 2747   2.835   1.018   2.648  0.1568  0.3280 -0.3815
  189DMF     C2 2748   2.987   1.019   2.647 -0.0322  0.3203  0.4293
  189DMF     C3 2749   2.766   0.948   2.745 -0.2918 -0.0677 -0.3564
  189DMF     O1 2750   2.645   0.936   2.742  0.0162 -0.3643 -0.3408
  189DMF     H1 2751   2.695   1.033   2.495 -2.0940  1.8114  0.6130
  189DMF     H2 2752   2.837   1.137   2.477 -2.0852  1.5119 -1.0056
  189DMF     H3 2753   2.703   1.175   2.593 -1.1426 -0.2287 -0.0273
  189DMF     H4 2754   3.034   1.109   2.607 -1.1391  0.8980  0.4121
  189DMF     H5 2755   3.025   0.930   2.596 -1.4799  0.8982 -1.7277
  189DMF     H6 2756   3.017   1.025   2.752 -0.3542  0.7058  0.4980
  189DMF     H7 2757   2.819   0.900   2.829 -1.1176  2.0040  1.4141
  190DMF     C1 2758   2.370   1.850   1.561  0.8202 -0.0098  0.7995
  190DMF     N1 2759   2.491   1.918   1.509  0.4108  0.3576  0.1266
  190DMF     C2 2760   2.484   2.058   1.460  0.3997 -0.6729  0.1120
  190DMF     C3 2761   2.612   1.837   1.490  0.1999 -0.3220 -0.0141
  190DMF     O1 2762   2.614   1.716   1.510  0.2979  0.0365 -0.3883
  190DMF     H1 2763   2.387   1.759   1.620  0.3589 -0.0890  0.8077
  190DMF     H2 2764   2.313   1.818   1.473  0.5460 -0.1109  1.0137
  190DMF     H3 2765   2.311   1.910   1.632 -0.7106  0.9832 -1.2804
  190DMF     H4 2766   2.423   2.116   1.531 -0.5198  1.2236 -2.1913
  190DMF     H5 2767   2.434   2.067   1.363  3.6998 -1.1655 -1.7233
  190DMF     H6 2768   2.575   2.118   1.469 -0.9323  1.4991 -0.6223
  190DMF     H7 2769   2.698   1.895   1.455 -0.1217 -1.0379 -2.0501
  191DMF     C1 2770   0.558   3.434   2.267  0.4837 -0.1126  0.6508
  191DMF     N1 2771   0.589   3.573   2.278 -0.2899  0.6032  0.2399
  191DMF     C2 2772   0.735   3.603   2.265  0.1722  0.2017 -0.4658
  191DMF     C3 2773   0.492   3.673   2.255  0.0021  0.2882 -0.6580
  191DMF     O1 2774   0.371   3.644   2.251 -0.0660  0.7975  0.7449
  191DMF     H1 2775   0.519   3.399   2.363  0.3172  0.5354  0.8270
  191DMF     H2 2776   0.642   3.370   2.238 -2.0274 -2.3557 -1.8779
  191DMF     H3 2777   0.488   3.424   2.183 -0.8678 -1.4621  1.9248
  191DMF     H4 2778   0.803   3.519   2.283 -0.2686 -0.0567  0.0051
  191DMF     H5 2779   0.749   3.679   2.344  0.1986  0.4621 -0.7196
  191DMF     H6 2780   0.752   3.641   2.163  1.3238 -1.8836 -1.0718
  191DMF     H7 2781   0.529   3.775   2.236 -0.9055  0.6719 -0.4168
  192DMF     C1 2782   1.749   0.626   1.159  0.3798 -0.3681 -0.2074
  192DMF     N1 2783   1.688   0.699   1.048  0.7734  0.0546 -0.1868
  192DMF     C2 2784   1.597   0.809   1.082  0.1520  0.3927  0.5834
  192DMF     C3 2785   1.723   0.668   0.916 -0.4674  0.0013 -0.6166
  192DMF     O1 2786   1.785   0.569   0.885 -0.8957 -0.5737 -0.3856
  192DMF     H1 2787   1.852   0.598   1.135  0.1029  1.0522 -3.3399
  192DMF     H2 2788   1.698   0.529   1.172 -1.3900  0.6562  0.6470
  192DMF     H3 2789   1.752   0.678   1.255  2.0852 -1.9203  0.6139
  192DMF     H4 2790   1.586   0.842   1.186 -1.2023 -0.1947  0.6313
  192DMF     H5 2791   1.503   0.765   1.047  2.1104 -1.0186 -3.1826
  192DMF     H6 2792   1.634   0.901   1.036  3.2643 -0.6257  0.8881
  192DMF     H7 2793   1.686   0.744   0.846  1.8286  0.5714 -1.2482
  193DMF     C1 2794   0.989   0.702   0.663  0.1573  0.6734 -0.4024
  193DMF     N1 2795   0.909   0.651   0.547 -0.2838 -0.6135 -0.7592
  193DMF     C2 2796   0.808   0.746   0.488 -0.2499 -0.1665  0.2587
  193DMF     C3 2797   0.949   0.539   0.473 -0.3285  0.5491  1.0077
  193DMF     O1 2798   1.021   0.449   0.510  1.0220  0.3739 -0.3616
  193DMF     H1 2799   0.997   0.812   0.656 -1.7645  1.1194  3.1287
  193DMF     H2 2800   1.087   0.652   0.656  0.8495  2.0197 -0.5647
  193DMF     H3 2801   0.945   0.682   0.762  1.5876 -2.8008 -0.4112
  193DMF     H4 2802   0.757   0.795   0.571 -0.5973 -0.4488  0.2125
  193DMF     H5 2803   0.728   0.700   0.429  0.2584 -3.7026  2.1971
  193DMF     H6 2804   0.864   0.814   0.423 -0.9627  0.6397  0.4801
  193DMF     H7 2805   0.910   0.542   0.370 -0.9488 -0.9474  1.1794
  194DMF     C1 2806   2.027   2.535   3.412 -0.7585  0.0603 -0.5714
  194DMF     N1 2807   1.940   2.653   3.392 -0.2115 -0.7346  0.6633
  194DMF     C2 2808   1.922   2.701   3.251 -0.4481  0.0067  0.1725
  194DMF     C3 2809   1.879   2.714   3.500  0.4530  0.3721  0.3105
  194DMF     O1 2810   1.876   2.669   3.613  0.1580 -0.5483  0.0224
  194DMF     H1 2811   2.104   2.533   3.333  1.1395  0.5748  1.2096
  194DMF     H2 2812   1.971   2.441   3.402  0.2265 -0.7706  1.4691
  194DMF     H3 2813   2.081   2.550   3.506  0.6261  0.9585 -1.4779
  194DMF     H4 2814   2.002   2.773   3.232  1.0071 -2.2638 -2.8073
  194DMF     H5 2815   1.823   2.745   3.233  0.2665  2.3075  1.6787
  194DMF     H6 2816   1.942   2.618   3.182  0.3663  1.0897 -0.9247
  194DMF     H7 2817   1.860   2.818   3.468 -0.7344  1.2359  3.6168
  195DMF     C1 2818   1.775   0.802   3.416  0.3881  0.2751  0.4528
  195DMF     N1 2819   1.852   0.883   3.320 -0.0955 -0.2819 -0.1359
  195DMF     C2 2820   1.983   0.940   3.359 -0.0510  0.0149 -0.4387
  195DMF     C3 2821   1.815   0.885   3.181 -0.4431  0.1825 -0.4442
  195DMF     O1 2822   1.716   0.835   3.126  0.4156  0.1312  0.0362
  195DMF     H1 2823   1.847   0.748   3.478  0.7361  0.6014  0.3390
  195DMF     H2 2824   1.719   0.723   3.363  0.0488 -0.3999  1.8008
  195DMF     H3 2825   1.700   0.857   3.475 -0.5569 -0.2830 -0.2097
  195DMF     H4 2826   2.021   1.009   3.282  1.6016  2.8756  2.7988
  195DMF     H5 2827   2.056   0.860   3.378 -1.9653 -1.4268  1.1429
  195DMF     H6 2828   1.954   0.989   3.453  0.2195 -0.0831 -0.3027
  195DMF     H7 2829   1.896   0.930   3.122 -1.0037  0.2201 -1.2004
  196DMF     C1 2830   3.398   2.435   3.274  0.3055  0.7800 -0.0977
  196DMF     N1 2831   3.446   2.351   3.386 -0.2437 -0.2195 -0.5737
  196DMF     C2 2832   3.374   2.373   3.514 -0.3531 -0.0453  0.4098
  196DMF     C3 2833   3.559   2.278   3.385  0.0379  0.0313  0.7304
  196DMF     O1 2834   3.623   2.264   3.284 -0.0260  0.0593  0.6869
  196DMF     H1 2835   3.420   2.542   3.289 -1.4570  0.9385  1.5481
  196DMF     H2 2836   3.290   2.431   3.251  0.1884 -2.5055  0.8376
  196DMF     H3 2837   3.445   2.398   3.182 -1.3440 -3.3755  0.6240
  196DMF     H4 2838   3.439   2.438   3.573  0.0916  0.0700 -0.2028
  196DMF     H5 2839   3.368   2.277   3.565 -0.8342  0.5949  1.5669
  196DMF     H6 2840   3.278   2.420   3.490  0.1772  0.8133 -0.0578
  196DMF     H7 2841   3.582   2.227   3.481  0.8779 -2.6562 -0.8551
  197DMF     C1 2842   0.692   3.108   2.673 -0.5644  0.1152 -0.2510
  197DMF     N1 2843   0.559   3.173   2.667  0.6331 -0.4680  0.4585
  197DMF     C2 2844   0.435   3.090   2.652  0.4392 -0.6118  0.1220
  197DMF     C3 2845   0.550   3.310   2.653  0.3919 -0.1323 -0.2010
  197DMF     O1 2846   0.651   3.379   2.652 -0.1762 -0.6670  0.3323
  197DMF     H1 2847   0.771   3.174   2.710 -1.8377  1.1640  0.6642
  197DMF     H2 2848   0.731   3.075   2.576 -3.3060  1.1828 -1.7852
  197DMF     H3 2849   0.685   3.013   2.728 -0.2880 -0.5611 -1.3717
  197DMF     H4 2850   0.385   3.096   2.749  1.1210 -0.0663  0.4501
  197DMF     H5 2851   0.450   2.993   2.604 -0.0635 -0.8545  0.4504
  197DMF     H6 2852   0.369   3.143   2.582  0.7517 -2.4442 -1.5864
  197DMF     H7 2853   0.449   3.355   2.646  1.1143  1.6820  0.5785
  198DMF     C1 2854   0.011   2.749   3.638 -0.0028  0.5099  0.2910
  198DMF     N1 2855  -0.096   2.832   3.578 -0.5798 -1.3685  0.6681
  198DMF     C2 2856  -0.066   2.979   3.570  0.5474  0.3781  0.1137
  198DMF     C3 2857  -0.208   2.770   3.516 -0.1699 -0.6121 -0.0377
  198DMF     O1 2858  -0.225   2.650   3.524  0.3516 -0.3466  0.3612
  198DMF     H1 2859   0.092   2.801   3.691 -0.8648  1.4059  0.7345
  198DMF     H2 2860   0.061   2.694   3.557 -0.8929 -0.3767  0.3436
  198DMF     H3 2861  -0.031   2.673   3.704 -0.8446 -0.1661 -0.9945
  198DMF     H4 2862  -0.167   3.018   3.585 -0.1886 -1.7116  0.6795
  198DMF     H5 2863  -0.022   3.003   3.473 -2.5349  0.7732 -1.2417
  198DMF     H6 2864  -0.010   3.026   3.652  2.2292 -0.2495 -0.6517
  198DMF     H7 2865  -0.275   2.839   3.462  0.7956 -0.7736 -1.4641
  199DMF     C1 2866   2.088   2.833   0.548 -0.3274  0.4081 -0.3789
  199DMF     N1 2867   2.135   2.697   0.591  0.3245  0.5305 -0.0943
  199DMF     C2 2868   2.279   2.666   0.606  0.1513  0.3512  0.2525
  199DMF     C3 2869   2.040   2.594   0.610  0.2783 -0.1263  0.2772
  199DMF     O1 2870   1.924   2.616   0.604 -0.0931  0.0187  0.2280
  199DMF     H1 2871   2.091   2.841   0.439 -0.9879  1.6938 -0.3086
  199DMF     H2 2872   2.152   2.909   0.595  1.5336 -0.1723 -1.8963
  199DMF     H3 2873   1.984   2.844   0.581 -0.1868 -2.3001  1.0839
  199DMF     H4 2874   2.344   2.717   0.533 -1.3339 -1.0634 -2.1276
  199DMF     H5 2875   2.290   2.558   0.595 -1.1001  0.4780 -2.6168
  199DMF     H6 2876   2.300   2.694   0.710  0.3331  0.9145  0.0657
  199DMF     H7 2877   2.083   2.494   0.630  2.2188  0.3886 -1.1273
  200DMF     C1 2878   1.343   3.370   3.295  0.3404 -0.2406  0.7211
  200DMF     N1 2879   1.464   3.402   3.374 -0.6010  0.4000 -0.1169
  200DMF     C2 2880   1.467   3.528   3.441 -0.8389 -0.7201  0.6874
  200DMF     C3 2881   1.570   3.308   3.372 -0.1135 -0.2544 -0.0404
  200DMF     O1 2882   1.553   3.195   3.329  0.1868 -0.4335 -0.9712
  200DMF     H1 2883   1.377   3.296   3.222  2.2635  0.0012  1.3433
  200DMF     H2 2884   1.311   3.464   3.249 -1.6445 -1.2666 -0.0904
  200DMF     H3 2885   1.261   3.329   3.356  1.2394  0.8828  2.7303
  200DMF     H4 2886   1.365   3.561   3.466 -0.6378 -0.4238  1.1354
  200DMF     H5 2887   1.531   3.604   3.396 -0.6129 -1.6663 -0.5981
  200DMF     H6 2888   1.508   3.511   3.542 -0.7541  1.2789  1.0022
  200DMF     H7 2889   1.663   3.349   3.416 -0.0939  0.2398 -0.5470
  201DMF     C1 2890   0.655   3.240   3.500  0.2379 -0.1651 -0.2609
  201DMF     N1 2891   0.707   3.153   3.609 -0.2238  0.1819  0.4476
  201DMF     C2 2892   0.694   3.003   3.603  0.4600 -0.4469 -0.0040
  201DMF     C3 2893   0.770   3.214   3.723 -0.0326  0.7985 -0.1178
  201DMF     O1 2894   0.792   3.336   3.739 -0.0322 -0.3136  0.3854
  201DMF     H1 2895   0.588   3.181   3.437  0.2097 -0.1154 -0.2772
  201DMF     H2 2896   0.739   3.266   3.436 -0.8921  0.3230 -1.5538
  201DMF     H3 2897   0.619   3.337   3.536 -1.5237 -0.9160  0.0403
  201DMF     H4 2898   0.683   2.959   3.704 -0.7706 -1.8023 -0.7012
  201DMF     H5 2899   0.787   2.959   3.566  1.7504  1.4292  0.9614
  201DMF     H6 2900   0.611   2.969   3.540  1.1121  0.2767 -1.2541
  201DMF     H7 2901   0.795   3.135   3.796  1.1367  1.5627  0.3020
  202DMF     C1 2902   0.113   0.846   0.568  0.1614  1.0349  0.0928
  202DMF     N1 2903  -0.035   0.873   0.584 -0.0381  0.3286  0.2881
  202DMF     C2 2904  -0.117   0.833   0.704 -0.7283  0.5716  0.1520
  202DMF     C3 2905  -0.082   0.962   0.495 -0.4425  0.4724  0.2983
  202DMF     O1 2906  -0.013   1.017   0.407 -0.2219  0.0765  0.5139
  202DMF     H1 2907   0.170   0.933   0.602  0.3679  0.8912  0.1106
  202DMF     H2 2908   0.137   0.830   0.462  3.0959  0.5860  0.7966
  202DMF     H3 2909   0.149   0.766   0.632  0.1327 -0.1713 -1.3657
  202DMF     H4 2910  -0.191   0.756   0.677 -0.3294 -0.8060  2.8305
  202DMF     H5 2911  -0.175   0.921   0.734 -0.7217  0.1848  1.3047
  202DMF     H6 2912  -0.047   0.803   0.782 -0.2134  1.6807  0.1197
  202DMF     H7 2913  -0.191   0.981   0.487 -0.5680 -0.5868 -0.4975
  203DMF     C1 2914   0.964   2.080   3.536  0.0311 -0.0305  0.1133
  203DMF     N1 2915   0.828   2.110   3.591 -0.0836  0.3624  0.3398
  203DMF     C2 2916   0.776   2.020   3.694 -0.3594  0.0931 -0.0178
  203DMF     C3 2917   0.748   2.212   3.540  0.4246  0.0397 -0.5802
  203DMF     O1 2918   0.783   2.283   3.440 -0.1053 -0.5564 -1.2824
  203DMF     H1 2919   1.021   2.172   3.518 -0.5203  0.4195  0.6336
  203DMF     H2 2920   0.958   2.021   3.444 -1.2780 -1.1439  0.9003
  203DMF     H3 2921   1.026   2.017   3.601  0.9087 -1.0030 -1.6416
  203DMF     H4 2922   0.841   1.934   3.709 -0.0524  0.1891 -0.7610
  203DMF     H5 2923   0.673   1.984   3.676 -0.7650  1.5265 -0.6922
  203DMF     H6 2924   0.772   2.083   3.783 -1.0577  0.6935 -0.4615
  203DMF     H7 2925   0.649   2.216   3.588 -1.1554  0.8395 -3.7890
  204DMF     C1 2926   1.056   3.026   1.443  0.7436  0.3213 -0.2499
  204DMF     N1 2927   1.194   2.989   1.496  0.0709 -0.9985 -0.2788
  204DMF     C2 2928   1.227   2.853   1.510 -0.2784 -0.0257  0.7661
  204DMF     C3 2929   1.274   3.080   1.574 -0.6736  0.3897 -1.2941
  204DMF     O1 2930   1.238   3.193   1.603  0.1185 -0.3114  0.0123
  204DMF     H1 2931   1.047   3.135   1.451 -1.2083  0.3869 -2.6099
  204DMF     H2 2932   0.974   2.982   1.502  0.6637 -0.1816 -0.7219
  204DMF     H3 2933   1.042   2.986   1.342 -1.5965 -1.0275  0.5502
  204DMF     H4 2934   1.157   2.785   1.459 -2.2122  2.4098  0.0244
  204DMF     H5 2935   1.222   2.831   1.617  0.1988 -0.7592  0.6364
  204DMF     H6 2936   1.323   2.841   1.459 -0.5815 -0.6407  0.3313
  204DMF     H7 2937   1.367   3.039   1.617 -1.0076 -0.2954 -1.2223
  205DMF     C1 2938   2.742   0.950   3.490  1.0678  0.1433  0.2539
  205DMF     N1 2939   2.869   0.944   3.410 -0.2612  0.2736  0.5417
  205DMF     C2 2940   2.914   1.063   3.360 -0.2920  0.1465  0.5913
  205DMF     C3 2941   2.942   0.824   3.393 -0.4757 -0.0898 -0.1606
  205DMF     O1 2942   2.897   0.714   3.427 -0.1600  0.0611 -0.5834
  205DMF     H1 2943   2.674   0.884   3.435 -0.1996  1.2463  0.4753
  205DMF     H2 2944   2.695   1.048   3.503  1.2924  0.0469  1.8903
  205DMF     H3 2945   2.752   0.912   3.593  1.5537 -2.4500 -0.7116
  205DMF     H4 2946   2.988   1.046   3.280 -1.1438 -1.4535  0.1305
  205DMF     H5 2947   2.957   1.121   3.443 -0.7142  1.4114 -0.0682
  205DMF     H6 2948   2.834   1.122   3.314  1.0094  1.1974 -0.3793
  205DMF     H7 2949   3.040   0.844   3.344  0.5919 -2.4872  0.9109
  206DMF     C1 2950   1.315   2.807   3.781  0.4745  0.1071  0.0170
  206DMF     N1 2951   1.451   2.741   3.803 -0.6949 -0.0965  0.5418
  206DMF     C2 2952   1.473   2.604   3.747  0.0168  0.1883 -0.0497
  206DMF     C3 2953   1.563   2.832   3.804  0.1253 -0.0972 -0.1505
  206DMF     O1 2954   1.535   2.948   3.826 -0.0243 -0.0941  0.6077
  206DMF     H1 2955   1.308   2.857   3.684  0.1345 -0.7713 -0.4234
  206DMF     H2 2956   1.284   2.871   3.864  0.7553 -0.9535  0.9555
  206DMF     H3 2957   1.235   2.731   3.779  0.0147  0.5927  0.0340
  206DMF     H4 2958   1.525   2.561   3.834 -0.4813  1.6585  0.9998
  206DMF     H5 2959   1.537   2.612   3.658  1.2071  0.3605  0.7975
  206DMF     H6 2960   1.375   2.561   3.727 -0.3004  1.0851 -0.4499
  206DMF     H7 2961   1.664   2.788   3.802  0.2598  0.2335 -0.8416
  207DMF     C1 2962   2.168   0.791   0.418 -0.2313  0.1635  0.0933
  207DMF     N1 2963   2.177   0.645   0.395  0.4919  0.4296 -0.0548
  207DMF     C2 2964   2.269   0.561   0.470 -0.5393 -0.1628 -0.1446
  207DMF     C3 2965   2.089   0.587   0.297 -0.5104  0.0184  0.3835
  207DMF     O1 2966   2.011   0.655   0.231  0.1396 -0.2526  0.0548
  207DMF     H1 2967   2.062   0.820   0.421 -0.0835  0.7860 -0.5274
  207DMF     H2 2968   2.227   0.833   0.336 -2.0029  3.4461  0.4341
  207DMF     H3 2969   2.211   0.824   0.513 -1.6803  1.2321  0.3980
  207DMF     H4 2970   2.366   0.612   0.480 -0.7491 -0.3062  3.1362
  207DMF     H5 2971   2.284   0.469   0.413 -0.9125 -0.2190 -0.1539
  207DMF     H6 2972   2.229   0.545   0.570  0.5457 -0.8879  0.1837
  207DMF     H7 2973   2.087   0.476   0.300 -1.5562 -0.0136 -0.8330
  208DMF     C1 2974   0.818   1.966   1.542 -0.6647  0.6012 -0.1882
  208DMF     N1 2975   0.840   1.818   1.539 -0.4988  0.1723 -0.2938
  208DMF     C2 2976   0.723   1.736   1.529 -0.0864 -0.5896  0.3269
  208DMF     C3 2977   0.973   1.765   1.558  0.1681  0.3947  0.1679
  208DMF     O1 2978   1.075   1.831   1.556 -0.1332 -0.5957  0.2669
  208DMF     H1 2979   0.720   2.003   1.511 -0.6011  0.1710 -0.9238
  208DMF     H2 2980   0.905   2.013   1.494 -1.1310  0.4393 -1.2127
  208DMF     H3 2981   0.825   1.997   1.647 -2.0499  0.2897  0.0086
  208DMF     H4 2982   0.712   1.708   1.424 -1.4491  1.5952 -0.1286
  208DMF     H5 2983   0.630   1.786   1.561 -0.1565  0.9465 -2.1978
  208DMF     H6 2984   0.750   1.646   1.587 -1.0842  0.0419  1.8033
  208DMF     H7 2985   0.976   1.656   1.577  3.7239  0.2698 -0.7414
  209DMF     C1 2986   0.772   3.136   0.897 -1.1343 -0.4964  0.7305
  209DMF     N1 2987   0.896   3.064   0.930  0.0518 -0.0418 -0.4761
  209DMF     C2 2988   0.979   2.995   0.826 -0.3274 -0.1497 -0.6909
  209DMF     C3 2989   0.945   3.068   1.064 -0.1052  0.1631  0.6448
  209DMF     O1 2990   0.889   3.126   1.155  0.2501 -0.2013 -0.2418
  209DMF     H1 2991   0.739   3.120   0.793 -2.1177 -1.1336  1.1375
  209DMF     H2 2992   0.774   3.242   0.922  0.3911 -0.9977  2.8416
  209DMF     H3 2993   0.694   3.090   0.959 -0.4252 -0.3602  1.7330
  209DMF     H4 2994   1.047   2.921   0.870 -0.1528  1.1565  1.2938
  209DMF     H5 2995   1.043   3.070   0.778 -0.9243  0.5041 -0.4802
  209DMF     H6 2996   0.920   2.938   0.753  0.2836  0.3838 -1.6043
  209DMF     H7 2997   1.036   3.009   1.088  0.1707  0.5962  0.6558
  210DMF     C1 2998   2.697   3.040   1.053  0.2365  0.2455  1.1712
  210DMF     N1 2999   2.806   3.146   1.048  0.4153 -0.2037  0.6198
  210DMF     C2 3000   2.771   3.274   1.124  0.5473  0.2332 -0.4132
  210DMF     C3 3001   2.905   3.154   0.951 -0.2060  0.2187 -0.0329
  210DMF     O1 3002   2.916   3.070   0.870  0.3798  0.0623 -0.2572
  210DMF     H1 3003   2.684   2.980   0.962  3.2597 -0.5391  1.2206
  210DMF     H2 3004   2.602   3.093   1.067  0.6129  1.1420  0.4048
  210DMF     H3 3005   2.711   2.972   1.137 -0.5889 -0.2249  0.9364
  210DMF     H4 3006   2.711   3.247   1.211  0.5299  2.7361  0.3824
  210DMF     H5 3007   2.731   3.343   1.049  0.7531 -0.6831 -1.3725
  210DMF     H6 3008   2.868   3.310   1.160  0.1733  0.9670 -0.1261
  210DMF     H7 3009   2.965   3.247   0.955 -1.4776  1.0041  1.6662
  211DMF     C1 3010   2.593   2.650   2.239  0.1659 -0.1808 -0.1519
  211DMF     N1 3011   2.564   2.682   2.381  0.3207 -0.0157 -0.3523
  211DMF     C2 3012   2.473   2.596   2.455  0.1320  0.0134  0.1494
  211DMF     C3 3013   2.661   2.765   2.450 -0.0293  0.3754 -0.1920
  211DMF     O1 3014   2.736   2.837   2.391 -0.3876 -0.4174  0.3052
  211DMF     H1 3015   2.651   2.558   2.232 -1.0057 -0.9974  0.6712
  211DMF     H2 3016   2.642   2.733   2.186 -1.3487  0.5035 -0.5352
  211DMF     H3 3017   2.499   2.629   2.185 -0.7091 -0.2449  1.3569
  211DMF     H4 3018   2.507   2.494   2.434 -1.1825  0.0705 -2.5088
  211DMF     H5 3019   2.368   2.614   2.426 -0.2085 -2.2849 -0.1646
  211DMF     H6 3020   2.495   2.612   2.561  2.7597  3.2328 -0.7946
  211DMF     H7 3021   2.667   2.747   2.559 -0.0819 -1.8151 -0.5321
  212DMF     C1 3022   2.015   1.965   2.245  0.0422  0.3878  0.0759
  212DMF     N1 3023   2.002   1.904   2.379  0.1613 -0.3423 -0.7747
  212DMF     C2 3024   2.120   1.832   2.449  0.3626  0.0400 -0.1378
  212DMF     C3 3025   1.890   1.940   2.462  0.0119  0.7188  0.4393
  212DMF     O1 3026   1.805   2.020   2.424 -0.6102  0.5456  0.4636
  212DMF     H1 3027   1.917   1.974   2.197 -0.7037 -2.3167  1.0100
  212DMF     H2 3028   2.075   1.912   2.170  1.2736  0.5101  0.9554
  212DMF     H3 3029   2.060   2.065   2.246  0.3243  0.2782 -1.1035
  212DMF     H4 3030   2.080   1.762   2.523 -1.9527  1.0847 -0.3863
  212DMF     H5 3031   2.181   1.904   2.505  0.8616 -1.6682  1.5753
  212DMF     H6 3032   2.189   1.791   2.374  2.1996  2.4731  0.1855
  212DMF     H7 3033   1.905   1.899   2.563 -0.0606  1.6489  0.8307
  213DMF     C1 3034   2.507   0.855   1.552  0.0935 -0.5529  0.0268
  213DMF     N1 3035   2.379   0.786   1.547 -0.2044  0.5729  0.1326
  213DMF     C2 3036   2.263   0.873   1.520  0.1961  0.0658  0.8405
  213DMF     C3 3037   2.371   0.645   1.545  0.1474  0.1727 -0.0431
  213DMF     O1 3038   2.470   0.573   1.568  0.2368 -0.4696 -0.0262
  213DMF     H1 3039   2.511   0.922   1.465 -1.0497  1.5995  1.5983
  213DMF     H2 3040   2.589   0.782   1.554  1.1540  0.6221  1.0656
  213DMF     H3 3041   2.525   0.918   1.640 -0.5266 -0.4811  0.1048
  213DMF     H4 3042   2.250   0.863   1.412  0.4913  0.2226  0.7873
  213DMF     H5 3043   2.292   0.974   1.552 -0.4532  0.0951  1.3236
  213DMF     H6 3044   2.176   0.835   1.574 -1.1528  0.7474 -0.8065
  213DMF     H7 3045   2.271   0.604   1.525  0.2871 -1.3047  2.1570
  214DMF     C1 3046   2.050   2.683   1.154  0.0758  0.0517  0.4017
  214DMF     N1 3047   2.027   2.791   1.047 -0.0590  0.6142  0.2644
  214DMF     C2 3048   2.101   2.785   0.920  0.3833 -0.5732 -0.1286
  214DMF     C3 3049   1.935   2.894   1.061 -0.0046 -0.4240 -0.3384
  214DMF     O1 3050   1.866   2.907   1.167  0.2163  0.0843 -0.2195
  214DMF     H1 3051   1.954   2.634   1.176  0.4042 -0.2247  1.2338
  214DMF     H2 3052   2.101   2.720   1.243  2.0298 -0.1380 -0.6120
  214DMF     H3 3053   2.117   2.604   1.118  0.3475  0.6447 -0.4225
  214DMF     H4 3054   2.041   2.774   0.829  0.3772 -0.2622 -0.1645
  214DMF     H5 3055   2.174   2.704   0.931 -1.6230 -2.3423  0.6141
  214DMF     H6 3056   2.161   2.876   0.904  0.9410 -1.0340 -0.6556
  214DMF     H7 3057   1.937   2.969   0.979  0.5366 -1.4054 -1.2245
  215DMF     C1 3058   1.149   1.148   2.249 -0.0033  0.5166 -0.0223
  215DMF     N1 3059   1.082   1.273   2.214 -0.2875  0.0883 -0.7275
  215DMF     C2 3060   1.163   1.398   2.223  0.5699  0.1912 -0.6554
  215DMF     C3 3061   0.947   1.276   2.211  0.9227  0.8146  0.2149
  215DMF     O1 3062   0.884   1.172   2.225 -0.3682  0.6510 -0.9590
  215DMF     H1 3063   1.255   1.177   2.257  0.2924  0.0255 -1.8876
  215DMF     H2 3064   1.144   1.061   2.182  0.6375  0.4913 -0.0449
  215DMF     H3 3065   1.118   1.120   2.350 -1.2505  3.4607  0.4706
  215DMF     H4 3066   1.124   1.484   2.167 -1.6830 -0.5364 -0.2140
  215DMF     H5 3067   1.259   1.372   2.175  0.0594 -0.9809 -1.0474
  215DMF     H6 3068   1.176   1.433   2.326 -1.7377  0.9231 -0.5875
  215DMF     H7 3069   0.911   1.375   2.178 -4.1561 -1.5072 -1.6039
  216DMF     C1 3070   1.295   2.843   2.964 -0.0923 -0.6495 -0.9054
  216DMF     N1 3071   1.427   2.889   2.916 -0.2773  0.3448  0.6334
  216DMF     C2 3072   1.450   3.037   2.906  0.6345 -1.2001  0.5340
  216DMF     C3 3073   1.538   2.808   2.917 -0.0246  0.2104 -0.3190
  216DMF     O1 3074   1.533   2.688   2.944  0.9698 -0.6212 -0.3688
  216DMF     H1 3075   1.292   2.828   3.072 -0.2028  0.8552 -0.6912
  216DMF     H2 3076   1.260   2.754   2.909 -0.2254 -0.7149 -0.7143
  216DMF     H3 3077   1.217   2.916   2.940 -0.1892 -0.2543  0.5728
  216DMF     H4 3078   1.505   3.070   2.995  1.8272  0.5510 -0.8073
  216DMF     H5 3079   1.360   3.098   2.899  2.3281  1.2041 -1.1475
  216DMF     H6 3080   1.516   3.047   2.819  0.5992 -0.8372  0.5497
  216DMF     H7 3081   1.629   2.861   2.886 -0.6242  1.7811  0.5281
  217DMF     C1 3082   2.398   2.698   3.444  0.2274  0.4698  0.1021
  217DMF     N1 3083   2.314   2.796   3.368 -0.2855  0.0517  0.7026
  217DMF     C2 3084   2.350   2.834   3.232  0.3776 -0.2520 -0.6198
  217DMF     C3 3085   2.227   2.883   3.436  0.4388  0.1127  0.4558
  217DMF     O1 3086   2.203   2.861   3.555  0.3594 -0.0818  0.3421
  217DMF     H1 3087   2.351   2.599   3.445 -2.6920  1.7950 -0.6544
  217DMF     H2 3088   2.403   2.728   3.549  1.5918 -0.0314  0.1896
  217DMF     H3 3089   2.496   2.684   3.398 -0.0242 -0.0304 -0.2878
  217DMF     H4 3090   2.263   2.813   3.169 -0.3093 -0.1318  0.2977
  217DMF     H5 3091   2.439   2.782   3.193  0.8491  0.8197 -1.0285
  217DMF     H6 3092   2.371   2.942   3.231  3.5113 -0.7901  1.2691
  217DMF     H7 3093   2.196   2.969   3.375  1.8295  0.2469 -0.0687
  218DMF     C1 3094   1.671   0.846   0.373  0.2061  0.2472  0.1640
  218DMF     N1 3095   1.622   0.976   0.323 -0.3430 -0.0883  0.5869
  218DMF     C2 3096   1.501   0.984   0.236 -0.8638  0.4525  0.2706
  218DMF     C3 3097   1.708   1.092   0.339  0.1143 -0.0180  0.0347
  218DMF     O1 3098   1.817   1.088   0.385 -0.7271  0.7402 -0.1695
  218DMF     H1 3099   1.767   0.840   0.321 -0.4081 -2.6749 -0.7386
  218DMF     H2 3100   1.620   0.757   0.332 -1.0891  0.8153  0.4960
  218DMF     H3 3101   1.676   0.843   0.482  0.5716 -2.1619  0.1084
  218DMF     H4 3102   1.410   1.009   0.291 -0.3315  1.3665  0.7406
  218DMF     H5 3103   1.481   0.886   0.190  1.3223 -0.4448  1.1308
  218DMF     H6 3104   1.519   1.055   0.155 -0.3045 -0.0849 -0.0839
  218DMF     H7 3105   1.658   1.181   0.297 -1.5200 -0.5419  0.8447
  219DMF     C1 3106   0.521   3.078   0.480 -0.1986 -0.0808 -0.4802
  219DMF     N1 3107   0.457   3.147   0.366  0.1470 -0.1722 -0.3035
  219DMF     C2 3108   0.344   3.238   0.396  0.1142  0.5250  0.5808
  219DMF     C3 3109   0.519   3.147   0.239 -0.0676  0.2260 -0.2865
  219DMF     O1 3110   0.607   3.072   0.198  0.4230 -0.4357  0.1350
  219DMF     H1 3111   0.498   3.135   0.571 -1.3100  0.4458 -1.0821
  219DMF     H2 3112   0.628   3.063   0.465 -0.4503 -0.3175 -2.1297
  219DMF     H3 3113   0.477   2.978   0.489 -2.2720  0.9338  1.0621
  219DMF     H4 3114   0.386   3.339   0.381  0.3472  0.1224 -1.6415
  219DMF     H5 3115   0.293   3.202   0.487 -0.8696 -2.3835 -1.0548
  219DMF     H6 3116   0.275   3.223   0.312  1.7723 -1.2788 -0.4880
  219DMF     H7 3117   0.479   3.228   0.175 -2.5919  0.2365  1.2444
  220DMF     C1 3118   0.567   2.831   2.267 -0.0002 -1.0515 -0.4070
  220DMF     N1 3119   0.490   2.959   2.270  0.1035  0.1133 -0.1045
  220DMF     C2 3120   0.347   2.952   2.239  0.4360  0.7016 -0.4912
  220DMF     C3 3121   0.550   3.084   2.296  0.0342  0.4508 -0.2145
  220DMF     O1 3122   0.670   3.106   2.301 -0.2037 -0.5946  0.0048
  220DMF     H1 3123   0.664   2.858   2.223 -0.5322  0.6793 -0.5811
  220DMF     H2 3124   0.512   2.758   2.207 -0.9269  0.6641 -1.6936
  220DMF     H3 3125   0.586   2.794   2.369 -0.5020 -0.5136 -0.1140
  220DMF     H4 3126   0.323   3.016   2.153  1.4936 -0.9420 -2.0502
  220DMF     H5 3127   0.286   2.999   2.316 -1.3616  1.8240 -2.5396
  220DMF     H6 3128   0.303   2.852   2.229  0.8322  0.1986  2.3449
  220DMF     H7 3129   0.487   3.175   2.294  2.4602  2.2267  0.6586
  221DMF     C1 3130   1.910   2.560   0.312  0.2540  0.2736 -0.6868
  221DMF     N1 3131   1.929   2.584   0.172  0.4177 -0.0296  0.0921
  221DMF     C2 3132   1.959   2.718   0.134  0.2673 -0.3235  0.3428
  221DMF     C3 3133   1.918   2.471   0.084 -0.1292 -0.3084 -0.2295
  221DMF     O1 3134   1.895   2.360   0.125  0.5239  0.1066  0.6103
  221DMF     H1 3135   1.958   2.467   0.344  0.8882 -0.1012 -2.6846
  221DMF     H2 3136   1.802   2.548   0.331 -0.3676 -0.1396 -4.0752
  221DMF     H3 3137   1.936   2.649   0.371  1.3668 -0.7342  0.3572
  221DMF     H4 3138   1.988   2.730   0.029 -1.1003  2.7969  0.2932
  221DMF     H5 3139   2.033   2.770   0.196 -1.4839 -0.0279  2.2538
  221DMF     H6 3140   1.865   2.770   0.153  0.2016 -0.5455  0.6311
  221DMF     H7 3141   1.956   2.496  -0.017 -0.0661 -2.4525 -0.7701
  222DMF     C1 3142   0.140   2.711   0.175 -0.7741  0.8421  0.3962
  222DMF     N1 3143   0.278   2.766   0.216  0.2561 -0.5026 -0.2052
  222DMF     C2 3144   0.315   2.760   0.359 -0.2901  0.1347  0.2686
  222DMF     C3 3145   0.377   2.819   0.122 -0.6186  0.7707 -0.6498
  222DMF     O1 3146   0.353   2.831   0.001  1.0997 -0.1122 -0.3095
  222DMF     H1 3147   0.113   2.610   0.206  0.1737 -0.0980 -1.6764
  222DMF     H2 3148   0.133   2.726   0.066 -1.1387  0.5785  0.3820
  222DMF     H3 3149   0.067   2.781   0.217 -0.6995  0.9253  0.3866
  222DMF     H4 3150   0.417   2.799   0.368 -0.5381  0.7158  0.5669
  222DMF     H5 3151   0.331   2.655   0.386 -1.9208  0.1437  1.3336
  222DMF     H6 3152   0.236   2.802   0.422 -0.3622  0.5050 -0.0680
  222DMF     H7 3153   0.476   2.841   0.167 -0.9400  0.5211  0.1998
  223DMF     C1 3154   1.528   3.385   0.878  0.3073  0.1366  0.0470
  223DMF     N1 3155   1.405   3.342   0.803 -0.5122  0.5920 -0.1300
  223DMF     C2 3156   1.414   3.318   0.659 -0.3817  0.6051  0.3686
  223DMF     C3 3157   1.282   3.355   0.871 -0.2081  0.3372 -0.4280
  223DMF     O1 3158   1.281   3.368   0.992  0.1737  0.7030 -0.7517
  223DMF     H1 3159   1.508   3.488   0.910  0.3506 -0.0974  0.8388
  223DMF     H2 3160   1.621   3.381   0.820  0.7512  0.0280  0.7636
  223DMF     H3 3161   1.536   3.317   0.963  1.1093 -0.3323 -0.3909
  223DMF     H4 3162   1.431   3.412   0.604 -0.0544  0.6558  0.5570
  223DMF     H5 3163   1.324   3.267   0.622 -0.6025  2.0605 -1.1639
  223DMF     H6 3164   1.500   3.253   0.640  0.1882  1.7644 -1.1619
  223DMF     H7 3165   1.194   3.331   0.808 -0.9383 -0.3895  0.8576
  224DMF     C1 3166   0.691   2.682   0.099 -0.4917 -0.0502 -0.1183
  224DMF     N1 3167   0.766   2.768   0.198  0.2390  0.3120 -0.1525
  224DMF     C2 3168   0.865   2.859   0.147 -0.2897  0.3444 -0.3420
  224DMF     C3 3169   0.726   2.778   0.337  0.1905  0.0238 -0.6783
  224DMF     O1 3170   0.636   2.708   0.380 -0.0832 -0.3938  0.4939
  224DMF     H1 3171   0.766   2.626   0.043 -0.9028 -0.6205 -0.1046
  224DMF     H2 3172   0.626   2.736   0.029 -1.7401  0.9331  1.7402
  224DMF     H3 3173   0.631   2.611   0.157 -0.0480  0.1927  0.6581
  224DMF     H4 3174   0.933   2.801   0.083 -1.6530 -1.1629 -0.4536
  224DMF     H5 3175   0.918   2.904   0.232  1.3586 -0.3796 -0.9577
  224DMF     H6 3176   0.811   2.938   0.093 -0.8653  0.8666  0.9801
  224DMF     H7 3177   0.789   2.840   0.403 -0.8968  0.1604  0.2372
  225DMF     C1 3178   2.378   3.075   3.749 -0.4162  0.5147 -0.5789
  225DMF     N1 3179   2.253   3.141   3.803 -0.4837  0.6755  0.0429
  225DMF     C2 3180   2.205   3.085   3.927 -0.0524 -0.0006  0.0850
  225DMF     C3 3181   2.188   3.249   3.735 -0.2705  0.3657 -0.3382
  225DMF     O1 3182   2.231   3.295   3.629  0.0507  0.4721 -0.0089
  225DMF     H1 3183   2.385   2.967   3.766 -1.6858  0.4946 -0.1393
  225DMF     H2 3184   2.470   3.117   3.791 -0.7888  0.0452  0.7211
  225DMF     H3 3185   2.398   3.076   3.641  0.2984 -1.9187 -0.5086
  225DMF     H4 3186   2.119   3.140   3.966 -0.7599  0.5481 -2.1705
  225DMF     H5 3187   2.275   3.090   4.011 -1.3281 -2.2666  1.3393
  225DMF     H6 3188   2.184   2.978   3.916  0.0688 -0.0226  0.0666
  225DMF     H7 3189   2.106   3.302   3.786  0.3199  2.0125 -1.0589
  226DMF     C1 3190   0.362   1.712   3.384 -0.2607 -0.1624  0.4063
  226DMF     N1 3191   0.350   1.794   3.257  0.0087 -0.1268  0.3390
  226DMF     C2 3192   0.270   1.925   3.261  0.0626 -0.6648 -0.0255
  226DMF     C3 3193   0.407   1.751   3.137  0.4770 -0.4993  0.3619
  226DMF     O1 3194   0.481   1.655   3.135 -0.4525  0.3963 -0.1649
  226DMF     H1 3195   0.262   1.698   3.426 -0.5635 -0.1246 -0.2949
  226DMF     H2 3196   0.420   1.770   3.457  0.6557  1.8441 -1.8648
  226DMF     H3 3197   0.405   1.613   3.363  2.5700  0.6290  2.1724
  226DMF     H4 3198   0.240   1.951   3.159 -0.0585 -1.1289 -0.1127
  226DMF     H5 3199   0.320   2.006   3.315 -0.2553  1.7762 -3.2857
  226DMF     H6 3200   0.175   1.896   3.308  0.3440  0.7737  1.4696
  226DMF     H7 3201   0.394   1.816   3.048 -2.6700 -0.7765  0.5727
  227DMF     C1 3202   2.004   2.364   0.922  0.2320  0.0948 -0.5844
  227DMF     N1 3203   1.929   2.238   0.958  0.3668  0.2549 -0.1615
  227DMF     C2 3204   1.797   2.217   0.910  0.3488  0.0730  0.1945
  227DMF     C3 3205   1.977   2.152   1.050  0.2181 -0.1331  0.6428
  227DMF     O1 3206   2.090   2.153   1.087 -0.3466  0.4876  0.5394
  227DMF     H1 3207   2.038   2.411   1.015  0.1196  0.6623 -0.8325
  227DMF     H2 3208   1.957   2.443   0.863 -0.8290 -0.5579 -0.6410
  227DMF     H3 3209   2.085   2.325   0.859  0.0355 -0.1341 -0.6981
  227DMF     H4 3210   1.734   2.160   0.979  0.5602 -0.1703  0.1870
  227DMF     H5 3211   1.786   2.156   0.820  0.5679  1.9871 -1.1487
  227DMF     H6 3212   1.750   2.313   0.884 -0.8344 -0.6792 -0.4617
  227DMF     H7 3213   1.905   2.081   1.094  0.3781 -0.5864  0.1759
  228DMF     C1 3214   2.191   1.544   0.726  0.4787 -0.7617 -0.4945
  228DMF     N1 3215   2.230   1.651   0.629  0.3426  0.2639 -0.3023
  228DMF     C2 3216   2.348   1.614   0.549  0.5718 -0.2830  0.6027
  228DMF     C3 3217   2.165   1.773   0.616  0.3982 -0.1169 -0.3536
  228DMF     O1 3218   2.075   1.805   0.693  0.1086 -0.1703  0.0922
  228DMF     H1 3219   2.152   1.572   0.824 -2.8065 -0.0223 -1.9516
  228DMF     H2 3220   2.271   1.471   0.745 -0.1643 -0.9644  1.4820
  228DMF     H3 3221   2.103   1.498   0.680  0.2516 -2.1973  1.3391
  228DMF     H4 3222   2.311   1.542   0.475  0.9416  0.7265 -0.5942
  228DMF     H5 3223   2.419   1.585   0.627  0.4688  0.6200  1.0353
  228DMF     H6 3224   2.375   1.703   0.491  1.0367 -0.1147  1.0744
  228DMF     H7 3225   2.198   1.842   0.536 -2.7609  1.4904 -0.3520
  229DMF     C1 3226   2.646   0.976   0.914 -0.0377 -0.1085  0.6348
  229DMF     N1 3227   2.579   0.913   0.792  0.7981  0.3106  0.0543
  229DMF     C2 3228   2.641   0.816   0.707  0.9307  0.1377 -0.1881
  229DMF     C3 3229   2.443   0.923   0.791 -0.2877 -0.6627  0.7123
  229DMF     O1 3230   2.381   1.013   0.846  0.4924 -0.3150 -0.6022
  229DMF     H1 3231   2.748   0.939   0.928  0.9008  1.4782 -1.6889
  229DMF     H2 3232   2.581   0.965   1.001 -0.1180  0.9403  0.7086
  229DMF     H3 3233   2.664   1.083   0.898 -1.6354 -0.1399 -1.7429
  229DMF     H4 3234   2.746   0.847   0.704  0.6323  1.2346  0.8335
  229DMF     H5 3235   2.604   0.808   0.603  0.5224  1.1162 -0.1207
  229DMF     H6 3236   2.650   0.714   0.747  1.5697 -0.4321 -1.7218
  229DMF     H7 3237   2.402   0.848   0.722 -3.1110  0.4291  1.1461
  230DMF     C1 3238   0.658   0.538   2.553  0.3930 -0.2563  0.4014
  230DMF     N1 3239   0.679   0.392   2.584  0.2112 -0.3009  0.3096
  230DMF     C2 3240   0.560   0.302   2.580  0.4644  0.4489 -0.3690
  230DMF     C3 3241   0.808   0.335   2.613  0.8932  0.7766 -1.1579
  230DMF     O1 3242   0.905   0.404   2.630 -0.3020 -0.5211  0.0804
  230DMF     H1 3243   0.741   0.582   2.495 -0.0498  2.0409  1.4421
  230DMF     H2 3244   0.652   0.591   2.648 -0.0819  0.3168  0.0561
  230DMF     H3 3245   0.566   0.552   2.494 -0.5519 -2.1953  1.3614
  230DMF     H4 3246   0.585   0.198   2.603  0.4217  0.1400 -1.6934
  230DMF     H5 3247   0.515   0.310   2.481 -1.4507 -1.5679  0.2960
  230DMF     H6 3248   0.490   0.332   2.659 -3.1931 -0.0119 -3.2877
  230DMF     H7 3249   0.813   0.226   2.631 -0.1977  0.7010 -1.2989
  231DMF     C1 3250   2.131   0.426   1.168  0.5744 -0.0720  0.2840
  231DMF     N1 3251   2.148   0.568   1.125 -0.4089 -0.4391 -0.9640
  231DMF     C2 3252   2.156   0.587   0.979  0.6568  0.3676  0.0768
  231DMF     C3 3253   2.128   0.678   1.211  0.1531 -0.4957  0.4097
  231DMF     O1 3254   2.114   0.674   1.333  0.7968 -0.2183 -0.5718
  231DMF     H1 3255   2.028   0.393   1.148  0.9862 -0.9413 -0.4552
  231DMF     H2 3256   2.174   0.403   1.266  0.0583  2.1745  1.0548
  231DMF     H3 3257   2.191   0.364   1.100 -0.0529  0.7582 -1.0479
  231DMF     H4 3258   2.208   0.682   0.966 -0.7537  1.1070 -0.3093
  231DMF     H5 3259   2.059   0.610   0.932  0.2513 -0.0966  0.6692
  231DMF     H6 3260   2.210   0.509   0.925 -2.0256 -0.4626 -1.4947
  231DMF     H7 3261   2.132   0.769   1.148  1.1082 -0.2155  0.8650
  232DMF     C1 3262   2.279   2.584   0.234 -0.5519  0.4583  0.3626
  232DMF     N1 3263   2.250   2.533   0.097  0.3557 -0.0901  0.6408
  232DMF     C2 3264   2.250   2.627  -0.020  0.1833 -0.2184  0.0238
  232DMF     C3 3265   2.253   2.396   0.066  0.6145 -0.6785 -0.4888
  232DMF     O1 3266   2.242   2.307   0.155  0.5486  0.0154 -0.4200
  232DMF     H1 3267   2.373   2.536   0.263 -0.4225  1.5466  1.7929
  232DMF     H2 3268   2.204   2.548   0.306  0.9105 -0.9722  1.1876
  232DMF     H3 3269   2.292   2.693   0.235 -1.2941  0.5425  1.2142
  232DMF     H4 3270   2.349   2.633  -0.066  0.0454 -2.3382 -0.6189
  232DMF     H5 3271   2.222   2.721   0.029 -3.1878 -0.6169 -1.0022
  232DMF     H6 3272   2.170   2.611  -0.094 -0.2014  2.3488 -0.1609
  232DMF     H7 3273   2.248   2.373  -0.042  0.3113 -0.5079 -0.5147
  233DMF     C1 3274   1.099   0.778   3.643  0.0068  0.0945  0.6836
  233DMF     N1 3275   1.236   0.746   3.683 -0.3572 -0.1568  0.2131
  233DMF     C2 3276   1.355   0.796   3.614  0.1532 -0.4627  0.1770
  233DMF     C3 3277   1.249   0.686   3.808  0.4460  0.1704  0.2985
  233DMF     O1 3278   1.150   0.664   3.875 -0.4343 -0.8820 -0.7364
  233DMF     H1 3279   1.046   0.683   3.631 -0.2395  0.4919 -1.5227
  233DMF     H2 3280   1.109   0.838   3.551  0.6871 -0.4461  0.3950
  233DMF     H3 3281   1.041   0.835   3.716 -2.6058 -1.4864 -0.1224
  233DMF     H4 3282   1.379   0.901   3.633  1.6190 -0.5831 -0.9259
  233DMF     H5 3283   1.353   0.769   3.508 -1.0305 -0.3803  0.1768
  233DMF     H6 3284   1.440   0.742   3.658 -1.3939 -3.6590 -0.6087
  233DMF     H7 3285   1.353   0.677   3.845  0.1965  2.0077  1.5617
  234DMF     C1 3286   1.723   0.654   2.359 -0.3374 -0.5115 -0.0707
  234DMF     N1 3287   1.753   0.543   2.268 -0.1702  0.0333  1.1414
  234DMF     C2 3288   1.900   0.503   2.251 -0.0186  0.3483 -0.2570
  234DMF     C3 3289   1.644   0.461   2.217  0.1011 -0.3515  0.1863
  234DMF     O1 3290   1.527   0.494   2.227  0.0072  0.1142  0.4012
  234DMF     H1 3291   1.734   0.755   2.316 -0.8538 -1.5853 -2.8736
  234DMF     H2 3292   1.786   0.639   2.447 -0.0936 -1.4613 -0.4088
  234DMF     H3 3293   1.619   0.631   2.386 -1.2761  0.0514 -2.9575
  234DMF     H4 3294   1.946   0.476   2.347 -0.1996  0.1834 -0.2142
  234DMF     H5 3295   1.954   0.587   2.206  0.5531 -0.0857 -0.3915
  234DMF     H6 3296   1.911   0.414   2.187 -0.8450 -0.8571  1.2499
  234DMF     H7 3297   1.691   0.374   2.169  1.6849  2.1385 -2.9401
  235DMF     C1 3298   0.105   2.871   0.743  0.0458 -0.1511  0.2416
  235DMF     N1 3299   0.069   3.011   0.746 -0.3552 -0.1183 -0.8427
  235DMF     C2 3300  -0.073   3.039   0.761 -0.3551 -0.3038 -0.0631
  235DMF     C3 3301   0.166   3.110   0.739 -0.3204  0.3185  0.0821
  235DMF     O1 3302   0.285   3.088   0.742 -0.5060 -0.1267  0.5341
  235DMF     H1 3303   0.128   2.820   0.838  0.3485 -1.6559 -0.6137
  235DMF     H2 3304   0.209   2.861   0.711  0.3302  1.9178  0.4943
  235DMF     H3 3305   0.030   2.822   0.680 -0.8297 -0.3549  1.4221
  235DMF     H4 3306  -0.091   3.137   0.806 -0.2116 -0.6608  0.7743
  235DMF     H5 3307  -0.115   2.962   0.826 -3.7148 -0.1444 -1.9458
  235DMF     H6 3308  -0.125   3.034   0.664  1.4781  2.9518 -1.2906
  235DMF     H7 3309   0.117   3.208   0.720  0.5010  0.4404 -1.4958
  236DMF     C1 3310   2.485   3.020   2.655 -0.5280 -0.5292  0.6779
  236DMF     N1 3311   2.515   3.027   2.798  0.5374  0.1317  0.0761
  236DMF     C2 3312   2.437   2.959   2.905 -0.0222 -0.2346 -0.3494
  236DMF     C3 3313   2.628   3.087   2.842  0.4413 -0.5590 -0.3251
  236DMF     O1 3314   2.700   3.160   2.776 -0.0416  0.3701  0.4916
  236DMF     H1 3315   2.565   3.046   2.585 -0.3735  0.9631  1.3890
  236DMF     H2 3316   2.402   3.089   2.634 -0.4778 -0.5234  0.5069
  236DMF     H3 3317   2.451   2.917   2.637 -1.7516 -0.1936  0.9642
  236DMF     H4 3318   2.503   2.880   2.942  1.2453  0.4123 -1.2072
  236DMF     H5 3319   2.339   2.930   2.867  0.6837  1.7609 -3.8896
  236DMF     H6 3320   2.421   3.026   2.991 -0.7535 -1.3694  0.4175
  236DMF     H7 3321   2.647   3.072   2.949 -2.2019  2.0375  0.5734
  237DMF     C1 3322   1.531   2.906   2.237  0.2081  0.4202  0.0203
  237DMF     N1 3323   1.584   2.904   2.379  0.7570  0.0365 -0.1574
  237DMF     C2 3324   1.482   2.913   2.490  0.4231 -0.9191 -0.1842
  237DMF     C3 3325   1.720   2.917   2.405  0.4759 -0.0473  0.3834
  237DMF     O1 3326   1.796   2.929   2.315  0.2502 -0.2942  0.1116
  237DMF     H1 3327   1.438   2.964   2.231  1.7516  2.8256 -1.3615
  237DMF     H2 3328   1.514   2.809   2.188  1.0622 -0.3875  1.2857
  237DMF     H3 3329   1.607   2.949   2.170  0.8599 -1.8204 -0.7147
  237DMF     H4 3330   1.506   3.004   2.546 -0.1241 -0.8171 -0.1126
  237DMF     H5 3331   1.492   2.825   2.555  2.1959  0.3805  1.3364
  237DMF     H6 3332   1.377   2.911   2.458  0.5039  0.0513 -0.5324
  237DMF     H7 3333   1.737   2.904   2.513  1.3197 -0.6490  0.1848
  238DMF     C1 3334   3.094   0.363   1.215  0.3298 -0.2422  0.0980
  238DMF     N1 3335   3.129   0.230   1.161 -0.1988  0.2855  0.3574
  238DMF     C2 3336   3.262   0.179   1.181  0.6670  0.2193 -0.2618
  238DMF     C3 3337   3.042   0.162   1.074  0.0961 -0.1659 -0.2717
  238DMF     O1 3338   2.945   0.216   1.015  0.1905  0.3375 -0.4629
  238DMF     H1 3339   2.987   0.384   1.203  0.2449 -0.2619  0.8160
  238DMF     H2 3340   3.140   0.446   1.161 -0.8938  0.1243 -0.4147
  238DMF     H3 3341   3.122   0.369   1.321  0.8944  2.2267 -0.1633
  238DMF     H4 3342   3.263   0.069   1.188 -0.0147  0.3639  3.7190
  238DMF     H5 3343   3.300   0.202   1.282  0.5632  1.0345 -0.4098
  238DMF     H6 3344   3.324   0.220   1.101 -0.2017  1.2068 -0.4363
  238DMF     H7 3345   3.073   0.057   1.056 -0.4331 -0.7776  2.1838
  239DMF     C1 3346   2.437   1.665   3.658 -0.5118 -0.3894 -0.8147
  239DMF     N1 3347   2.305   1.624   3.616  1.0761  0.4182 -0.1450
  239DMF     C2 3348   2.215   1.569   3.729  0.4722  0.4181  0.0628
  239DMF     C3 3349   2.256   1.646   3.486 -0.2621 -0.3674  0.4292
  239DMF     O1 3350   2.326   1.704   3.404  0.5191  0.0011  0.0629
  239DMF     H1 3351   2.457   1.762   3.612 -0.4540 -0.5188 -1.0629
  239DMF     H2 3352   2.507   1.587   3.626  0.4238  0.4254 -0.7766
  239DMF     H3 3353   2.430   1.682   3.766  0.4272 -1.1012 -0.6280
  239DMF     H4 3354   2.210   1.460   3.737 -0.8851  0.3620 -1.2778
  239DMF     H5 3355   2.114   1.611   3.721 -0.2376 -1.2768 -0.1730
  239DMF     H6 3356   2.265   1.591   3.824 -1.0751  2.2922  0.4932
  239DMF     H7 3357   2.150   1.618   3.472 -1.0929  2.0025  1.7533
  240DMF     C1 3358   2.422   1.865   0.870 -0.1722  0.0508  0.0628
  240DMF     N1 3359   2.365   1.924   0.987  0.2141  0.2260  0.1375
  240DMF     C2 3360   2.236   1.869   1.040  0.6310 -0.0543  0.1616
  240DMF     C3 3361   2.404   2.049   1.030  0.0952 -0.5326  0.0449
  240DMF     O1 3362   2.499   2.106   0.985  0.3415 -0.8005 -0.5643
  240DMF     H1 3363   2.530   1.877   0.879  0.0983 -2.7349  1.0891
  240DMF     H2 3364   2.387   1.927   0.787  1.2301  1.0392  0.1960
  240DMF     H3 3365   2.395   1.759   0.855  0.1435  0.0095 -0.1947
  240DMF     H4 3366   2.219   1.768   1.002  5.9200 -2.4081  3.3879
  240DMF     H5 3367   2.160   1.938   1.004  0.0382 -0.5757  0.4093
  240DMF     H6 3368   2.232   1.865   1.150 -0.0999  1.0328  0.1860
  240DMF     H7 3369   2.336   2.085   1.109 -1.0308 -0.7378 -0.8117
  241DMF     C1 3370   0.187   1.712   2.811  0.4386 -0.2094  0.0552
  241DMF     N1 3371   0.299   1.695   2.709  0.2307 -0.4400  0.5416
  241DMF     C2 3372   0.290   1.570   2.627  0.4638 -0.1617  0.3479
  241DMF     C3 3373   0.417   1.780   2.702 -0.0621 -0.0877 -0.7175
  241DMF     O1 3374   0.433   1.870   2.778 -0.2619 -0.7643  0.3164
  241DMF     H1 3375   0.091   1.719   2.758  0.7472 -3.2761 -1.0172
  241DMF     H2 3376   0.211   1.797   2.875  1.1021 -0.0684 -0.3793
  241DMF     H3 3377   0.182   1.618   2.868  0.3797 -0.6540 -0.6767
  241DMF     H4 3378   0.187   1.542   2.602  0.1340 -2.2265  3.7371
  241DMF     H5 3379   0.347   1.497   2.687  0.2147  0.0746  0.8724
  241DMF     H6 3380   0.341   1.587   2.531 -0.2903  0.3943  0.0420
  241DMF     H7 3381   0.495   1.751   2.629 -0.7305 -1.3565 -0.9237
  242DMF     C1 3382   2.641   0.076   0.251 -0.2229  0.0303 -0.1731
  242DMF     N1 3383   2.506   0.103   0.179 -0.1691 -0.5213 -0.3073
  242DMF     C2 3384   2.455  -0.005   0.080 -0.7047 -0.7230 -0.5997
  242DMF     C3 3385   2.425   0.207   0.213 -0.3734  0.0456  0.0602
  242DMF     O1 3386   2.441   0.283   0.308 -0.2180 -0.4172 -0.3191
  242DMF     H1 3387   2.675   0.167   0.302  0.1099 -0.5293  0.6215
  242DMF     H2 3388   2.716   0.048   0.176 -0.7838 -1.2694 -0.2513
  242DMF     H3 3389   2.627   0.001   0.329 -0.7266  0.0698 -0.2240
  242DMF     H4 3390   2.413  -0.086   0.141 -1.1690 -0.6046 -0.7590
  242DMF     H5 3391   2.541  -0.042   0.023  0.0147  0.6648 -0.4416
  242DMF     H6 3392   2.372   0.038   0.022 -0.0532 -0.6828 -1.4933
  242DMF     H7 3393   2.340   0.223   0.144  0.3072  1.7905 -0.4042
  243DMF     C1 3394   1.438   1.694   2.291  0.2343  0.2138  0.6114
  243DMF     N1 3395   1.526   1.807   2.253  0.2503  0.6711 -0.2868
  243DMF     C2 3396   1.674   1.778   2.246 -0.2143  0.3756 -0.5892
  243DMF     C3 3397   1.479   1.939   2.245  0.7349 -0.3583  0.6590
  243DMF     O1 3398   1.360   1.959   2.227  0.4020  0.0841  0.2529
  243DMF     H1 3399   1.397   1.725   2.388  0.8631  1.6535  0.4323
  243DMF     H2 3400   1.485   1.595   2.306 -1.5417 -0.9812 -1.5540
  243DMF     H3 3401   1.368   1.674   2.209  2.2140 -1.1733 -0.8063
  243DMF     H4 3402   1.731   1.849   2.185 -2.4371  3.4670  0.8291
  243DMF     H5 3403   1.702   1.680   2.205  1.1170 -0.7035  2.7630
  243DMF     H6 3404   1.718   1.782   2.347 -0.0683 -0.4291 -0.6104
  243DMF     H7 3405   1.562   2.012   2.234  0.6697 -0.5049 -1.0499
  244DMF     C1 3406   3.350   0.108   3.117  0.8183 -0.2583 -0.2686
  244DMF     N1 3407   3.264   0.165   3.228 -0.1384  0.6458  0.4193
  244DMF     C2 3408   3.182   0.277   3.198 -0.1232  0.4177  0.3536
  244DMF     C3 3409   3.276   0.111   3.362 -0.3267 -0.7192 -0.0232
  244DMF     O1 3410   3.359   0.023   3.387 -0.1323 -1.0432  0.3951
  244DMF     H1 3411   3.438   0.064   3.165  0.4161  0.6746  1.3664
  244DMF     H2 3412   3.373   0.190   3.049  0.6729  0.4732  0.5505
  244DMF     H3 3413   3.309   0.034   3.047  1.2894 -2.8666  2.1043
  244DMF     H4 3414   3.135   0.318   3.288 -1.3617  0.7298 -0.4171
  244DMF     H5 3415   3.102   0.255   3.126 -0.0045  0.6504  0.1519
  244DMF     H6 3416   3.246   0.357   3.161 -2.0491  1.2689 -1.1990
  244DMF     H7 3417   3.210   0.148   3.443  1.5574 -0.3020  1.3436
  245DMF     C1 3418   0.318   0.142   0.120  0.2085 -0.2200 -0.0056
  245DMF     N1 3419   0.443   0.192   0.053 -0.5219 -0.0539 -0.3160
  245DMF     C2 3420   0.548   0.085   0.037 -0.3833 -0.6526 -0.3707
  245DMF     C3 3421   0.445   0.317  -0.013 -0.1269 -0.4747  0.1429
  245DMF     O1 3422   0.353   0.393   0.004  0.1605 -0.3964 -0.5057
  245DMF     H1 3423   0.242   0.149   0.042  0.4310  0.3906 -0.1685
  245DMF     H2 3424   0.297   0.197   0.213 -1.7260 -0.1917 -0.4390
  245DMF     H3 3425   0.333   0.037   0.151 -2.6809 -1.1640 -1.6478
  245DMF     H4 3426   0.640   0.131  -0.002  0.3719 -2.0525 -0.2564
  245DMF     H5 3427   0.510   0.012  -0.035  0.8889 -1.0422 -0.6599
  245DMF     H6 3428   0.552   0.031   0.132  0.7791  1.1840  0.6609
  245DMF     H7 3429   0.542   0.339  -0.061 -0.5100 -0.7132 -0.7523
  246DMF     C1 3430   2.268   1.222   0.631  0.3986  0.2771 -0.6615
  246DMF     N1 3431   2.148   1.234   0.560 -0.5265 -0.5138 -0.3215
  246DMF     C2 3432   2.152   1.196   0.418 -0.5971 -0.9345  0.9056
  246DMF     C3 3433   2.023   1.250   0.630  0.5318 -0.6042 -0.7652
  246DMF     O1 3434   2.014   1.282   0.748  0.4921 -0.0153 -0.3573
  246DMF     H1 3435   2.261   1.243   0.738 -0.5317 -0.9603 -0.4619
  246DMF     H2 3436   2.341   1.299   0.603  0.8859 -0.2201 -0.7748
  246DMF     H3 3437   2.297   1.116   0.630  1.0125  0.4448 -1.2200
  246DMF     H4 3438   2.168   1.089   0.405  1.0334 -0.7437  1.1596
  246DMF     H5 3439   2.235   1.246   0.366 -1.6874  1.8388  1.7250
  246DMF     H6 3440   2.058   1.214   0.365 -0.0445 -0.6267  0.0212
  246DMF     H7 3441   1.943   1.229   0.558  0.2462 -3.5535  0.3293
  247DMF     C1 3442   2.420   1.415   2.656  0.0585  0.3896  0.3983
  247DMF     N1 3443   2.435   1.267   2.674 -0.0103 -0.3776  0.1104
  247DMF     C2 3444   2.401   1.176   2.563  0.8351  0.0132  0.0712
  247DMF     C3 3445   2.460   1.208   2.806 -0.0411  0.1353 -0.2426
  247DMF     O1 3446   2.498   1.282   2.897 -0.2112  0.1552 -0.3862
  247DMF     H1 3447   2.323   1.454   2.624 -0.4679 -1.0439  0.2038
  247DMF     H2 3448   2.492   1.457   2.585 -2.2423  0.0044 -2.2736
  247DMF     H3 3449   2.438   1.463   2.753  1.0885  0.5374  0.1371
  247DMF     H4 3450   2.420   1.074   2.598 -0.6326 -0.0761  0.6548
  247DMF     H5 3451   2.469   1.185   2.477 -1.2506 -1.1680 -1.7702
  247DMF     H6 3452   2.294   1.173   2.536  0.0911  1.9582  2.5985
  247DMF     H7 3453   2.454   1.099   2.820  1.9059 -0.0737 -0.9162
  248DMF     C1 3454   1.457   2.419   0.362 -0.6027  0.5790  0.2864
  248DMF     N1 3455   1.508   2.299   0.435  0.2151  0.2070 -0.9469
  248DMF     C2 3456   1.582   2.195   0.348 -0.0666  0.1421  0.6047
  248DMF     C3 3457   1.494   2.287   0.580  0.0700  0.1566 -0.4707
  248DMF     O1 3458   1.433   2.374   0.639 -0.0323 -0.1730  0.2971
  248DMF     H1 3459   1.421   2.392   0.263  3.6630  2.1327 -1.8123
  248DMF     H2 3460   1.543   2.485   0.343  0.9094 -1.6418 -0.8460
  248DMF     H3 3461   1.378   2.470   0.418 -0.5347  0.5804  0.3829
  248DMF     H4 3462   1.633   2.125   0.415  0.0905  0.7929  1.1770
  248DMF     H5 3463   1.645   2.255   0.281 -0.8566  0.0195 -0.2656
  248DMF     H6 3464   1.505   2.146   0.287  1.1383  1.3750 -2.0076
  248DMF     H7 3465   1.538   2.195   0.622 -1.0565 -0.9088 -1.5747
  249DMF     C1 3466   0.576   2.836   1.135  0.2662  0.3472 -0.0062
  249DMF     N1 3467   0.447   2.777   1.091 -0.2873 -0.0054  0.7749
  249DMF     C2 3468   0.324   2.853   1.097 -0.1753 -0.3489 -0.4158
  249DMF     C3 3469   0.449   2.654   1.023 -0.3056 -0.2086 -0.4983
  249DMF     O1 3470   0.547   2.580   1.030 -0.1148 -0.1288 -0.1897
  249DMF     H1 3471   0.600   2.792   1.233 -0.7681  0.0681  0.1300
  249DMF     H2 3472   0.565   2.944   1.151  1.8890  0.6626 -0.9153
  249DMF     H3 3473   0.655   2.803   1.066  2.3888  0.0356  2.4795
  249DMF     H4 3474   0.343   2.935   1.167  0.2779 -0.5036 -0.3584
  249DMF     H5 3475   0.236   2.794   1.126 -2.8287  3.6348  0.1136
  249DMF     H6 3476   0.293   2.898   1.002 -2.6313  0.8998  0.9241
  249DMF     H7 3477   0.350   2.626   0.983 -0.4914 -3.6535  2.1557
  250DMF     C1 3478   0.237   1.887   2.240 -0.6528 -0.6201  0.1848
  250DMF     N1 3479   0.209   1.896   2.380 -0.2980 -0.2139 -0.5045
  250DMF     C2 3480   0.066   1.894   2.417  0.2765 -0.2562  0.3065
  250DMF     C3 3481   0.301   1.948   2.473 -0.7458  0.0934 -0.0311
  250DMF     O1 3482   0.419   1.961   2.446 -0.1945  0.0788  0.3613
  250DMF     H1 3483   0.311   1.961   2.208 -1.0967 -0.1273  0.2979
  250DMF     H2 3484   0.145   1.883   2.181 -1.3832  1.8446  1.1037
  250DMF     H3 3485   0.272   1.784   2.223 -1.5681 -1.0264  0.7310
  250DMF     H4 3486   0.017   1.805   2.376  0.2956  0.1744 -0.6766
  250DMF     H5 3487   0.014   1.983   2.378 -1.0960 -0.7914  0.8854
  250DMF     H6 3488   0.054   1.891   2.526  0.2065 -1.2403  0.2795
  250DMF     H7 3489   0.253   1.975   2.569  0.9045  0.2143  0.7841
  251DMF     C1 3490   1.667   0.627   1.543 -0.6671  0.0805  0.4335
  251DMF     N1 3491   1.813   0.582   1.543  0.0844  0.0839  0.4531
  251DMF     C2 3492   1.845   0.432   1.535 -0.2023 -0.2670 -0.0424
  251DMF     C3 3493   1.915   0.677   1.569 -0.0943 -0.5356 -0.2322
  251DMF     O1 3494   1.902   0.797   1.586 -0.3204 -0.0923 -0.6240
  251DMF     H1 3495   1.645   0.669   1.444  1.2392 -1.5272 -0.7158
  251DMF     H2 3496   1.657   0.713   1.610  2.0756  1.8995 -1.4147
  251DMF     H3 3497   1.595   0.549   1.573  1.6075 -2.7401 -1.1230
  251DMF     H4 3498   1.804   0.378   1.621  0.8197 -0.3855  0.3868
  251DMF     H5 3499   1.947   0.399   1.511 -1.3474 -1.8173 -3.1754
  251DMF     H6 3500   1.781   0.391   1.455 -0.4408 -0.0568  0.0422
  251DMF     H7 3501   2.017   0.636   1.575  0.1738 -0.4714 -3.3616
  252DMF     C1 3502   1.221   0.583   3.085  0.4169 -0.0753 -0.5180
  252DMF     N1 3503   1.333   0.658   3.139  0.0853  0.4988  0.6615
  252DMF     C2 3504   1.314   0.791   3.187 -0.4699  0.0756 -0.4055
  252DMF     C3 3505   1.457   0.603   3.140  0.4727  0.0878  0.1986
  252DMF     O1 3506   1.484   0.495   3.092  0.3485  0.1172  0.2434
  252DMF     H1 3507   1.180   0.536   3.174  0.7767  0.6090  0.0136
  252DMF     H2 3508   1.260   0.512   3.011  0.3709  0.8681 -1.4776
  252DMF     H3 3509   1.148   0.642   3.027  0.7360 -2.2921 -3.2704
  252DMF     H4 3510   1.217   0.831   3.154 -0.3256  1.5371  0.8579
  252DMF     H5 3511   1.390   0.854   3.138  0.8480 -0.8715  0.3955
  252DMF     H6 3512   1.329   0.793   3.295  0.3675 -0.8008 -0.4961
  252DMF     H7 3513   1.522   0.670   3.200  0.3129 -1.2170  1.8797
  253DMF     C1 3514   2.868   2.418   2.236  0.1051  0.7981 -0.0561
  253DMF     N1 3515   2.942   2.310   2.297  0.1118  0.6694  0.0784
  253DMF     C2 3516   3.081   2.288   2.249 -0.2316  0.7011  0.7664
  253DMF     C3 3517   2.889   2.237   2.408 -0.2993  0.6612  0.7842
  253DMF     O1 3518   2.776   2.247   2.443 -0.2038  0.6025  0.2443
  253DMF     H1 3519   2.800   2.364   2.169  0.2695  0.0043  0.4166
  253DMF     H2 3520   2.929   2.496   2.191  0.4555  1.3288  1.2967
  253DMF     H3 3521   2.808   2.467   2.314  0.6612  1.7996 -0.2419
  253DMF     H4 3522   3.125   2.384   2.220 -0.0066  0.2178 -0.5085
  253DMF     H5 3523   3.085   2.222   2.162 -0.2298  2.3239 -0.4825
  253DMF     H6 3524   3.145   2.245   2.327  1.4359  2.3041  0.3030
  253DMF     H7 3525   2.959   2.170   2.461  0.4117  1.6933  1.1743
  254DMF     C1 3526   0.273   1.421   1.208  0.0466 -0.7093 -0.2494
  254DMF     N1 3527   0.406   1.469   1.250  0.6991  0.0671  0.8387
  254DMF     C2 3528   0.511   1.360   1.258  0.6608 -0.0403 -0.1472
  254DMF     C3 3529   0.449   1.602   1.272 -0.3081  0.7774  0.6062
  254DMF     O1 3530   0.389   1.701   1.237  0.3354  0.1221 -0.2470
  254DMF     H1 3531   0.203   1.496   1.246  1.3656 -0.5814  1.9989
  254DMF     H2 3532   0.244   1.325   1.251  0.0461 -0.9325 -0.7446
  254DMF     H3 3533   0.269   1.408   1.099  2.1276 -1.0336 -0.2990
  254DMF     H4 3534   0.530   1.339   1.152  1.7808  0.5379 -0.0630
  254DMF     H5 3535   0.474   1.268   1.305  2.4027  0.3540  2.0964
  254DMF     H6 3536   0.607   1.391   1.301 -1.0299  0.9881  3.0888
  254DMF     H7 3537   0.549   1.598   1.319 -0.4891 -0.9099  0.9022
  255DMF     C1 3538   1.083   2.686   0.730  0.6453 -0.1015  0.1135
  255DMF     N1 3539   1.154   2.556   0.748 -0.7350  0.3609 -0.2271
  255DMF     C2 3540   1.102   2.435   0.682  0.4636 -0.0083 -0.1061
  255DMF     C3 3541   1.260   2.545   0.837 -0.6955 -1.2823 -0.0055
  255DMF     O1 3542   1.304   2.642   0.903  0.1872 -0.1398 -0.2652
  255DMF     H1 3543   1.145   2.774   0.755 -1.2979  1.1160  0.7330
  255DMF     H2 3544   0.991   2.691   0.789  1.3378  1.1232  1.1233
  255DMF     H3 3545   1.052   2.685   0.625  0.6670  0.1587  0.1045
  255DMF     H4 3546   1.184   2.368   0.655 -0.1531 -1.4382  1.4658
  255DMF     H5 3547   1.058   2.471   0.589 -1.8264 -1.8741  0.2136
  255DMF     H6 3548   1.025   2.383   0.739  1.9786 -2.3754 -0.1659
  255DMF     H7 3549   1.312   2.448   0.853  1.2048 -0.3561 -0.4230
  256DMF     C1 3550   2.239   2.561   2.747 -0.0554  0.4403 -0.3526
  256DMF     N1 3551   2.098   2.528   2.755 -0.2384 -0.4760  0.2971
  256DMF     C2 3552   2.016   2.539   2.627 -0.8326  0.2012  0.3386
  256DMF     C3 3553   2.035   2.496   2.874  0.0373  0.2489  0.4964
  256DMF     O1 3554   2.097   2.498   2.976 -0.1790  0.6396  0.0621
  256DMF     H1 3555   2.247   2.669   2.734  0.2450  0.3145 -1.2457
  256DMF     H2 3556   2.303   2.521   2.667  0.1870 -1.4173  0.7387
  256DMF     H3 3557   2.285   2.533   2.843 -2.3941  0.3311  0.7728
  256DMF     H4 3558   1.938   2.612   2.653 -2.9619 -1.6147 -0.7542
  256DMF     H5 3559   1.978   2.441   2.596 -0.6262  0.2902 -0.2002
  256DMF     H6 3560   2.079   2.571   2.543 -0.6630 -0.0862  0.3582
  256DMF     H7 3561   1.928   2.479   2.850  0.6335 -1.2618 -1.2431
  257DMF     C1 3562   3.173   1.214   1.413  0.7527 -0.5067  0.9159
  257DMF     N1 3563   3.298   1.131   1.434  0.0120 -0.6394 -0.5587
  257DMF     C2 3564   3.319   1.074   1.570 -0.0548  0.1129 -0.2564
  257DMF     C3 3565   3.414   1.161   1.354 -0.0941 -0.3173 -0.7772
  257DMF     O1 3566   3.405   1.211   1.244  0.5283 -0.0556  0.1439
  257DMF     H1 3567   3.103   1.172   1.341  1.3372  1.3194 -0.7589
  257DMF     H2 3568   3.207   1.307   1.365  1.0974 -1.7864 -1.3806
  257DMF     H3 3569   3.124   1.231   1.510 -0.1087  2.6017 -0.0073
  257DMF     H4 3570   3.408   1.010   1.574  0.8741  1.4939  1.6033
  257DMF     H5 3571   3.233   1.016   1.605 -0.3526  0.4662 -0.3952
  257DMF     H6 3572   3.325   1.155   1.644  0.9694 -0.7608  0.6261
  257DMF     H7 3573   3.509   1.140   1.406 -2.6755 -0.7984  3.9983
  258DMF     C1 3574   3.230   1.048   3.068  0.2666  0.6432 -0.1884
  258DMF     N1 3575   3.296   0.930   3.128 -0.6721 -0.2625 -0.8702
  258DMF     C2 3576   3.417   0.940   3.210 -1.0098  0.2392  0.1668
  258DMF     C3 3577   3.246   0.800   3.090  0.7148  0.5204  0.4347
  258DMF     O1 3578   3.129   0.777   3.061 -0.2311  0.6289  0.5888
  258DMF     H1 3579   3.244   1.043   2.959 -2.3327 -2.5829 -0.4228
  258DMF     H2 3580   3.256   1.147   3.107  0.6952 -0.0337  1.2538
  258DMF     H3 3581   3.123   1.033   3.083  0.5984 -0.3068  1.2952
  258DMF     H4 3582   3.477   1.028   3.183  0.6719 -0.4907  1.4837
  258DMF     H5 3583   3.479   0.852   3.188 -1.1117  0.2293 -0.0895
  258DMF     H6 3584   3.394   0.935   3.317  1.9005 -1.8657  0.7611
  258DMF     H7 3585   3.320   0.720   3.108  0.0665 -0.4708 -1.2354
  259DMF     C1 3586   3.299   0.602   3.481 -1.1801 -0.3862  0.1625
  259DMF     N1 3587   3.261   0.642   3.621  0.7408  0.0179  0.1066
  259DMF     C2 3588   3.233   0.535   3.714  0.1470  0.4982 -0.3159
  259DMF     C3 3589   3.217   0.770   3.650 -0.2960 -0.1404 -0.3797
  259DMF     O1 3590   3.212   0.860   3.568 -0.3643  0.5463 -0.0492
  259DMF     H1 3591   3.398   0.557   3.491 -1.6825 -1.9141 -1.6161
  259DMF     H2 3592   3.313   0.690   3.416  2.4397 -0.1322  1.1560
  259DMF     H3 3593   3.232   0.532   3.430  0.1638 -0.5254 -1.4417
  259DMF     H4 3594   3.125   0.517   3.711 -0.0188  0.6389  3.3810
  259DMF     H5 3595   3.263   0.563   3.815 -0.4109  0.9767 -0.2802
  259DMF     H6 3596   3.274   0.438   3.683  0.2194  0.6692 -0.7604
  259DMF     H7 3597   3.177   0.781   3.752 -2.0687 -0.4112 -1.0269
  260DMF     C1 3598   2.461   0.925   3.258  1.0696  0.0589  0.1823
  260DMF     N1 3599   2.503   0.951   3.120 -0.4384 -0.5284 -0.0230
  260DMF     C2 3600   2.635   0.984   3.081 -0.7205  0.3231 -1.0417
  260DMF     C3 3601   2.422   0.898   3.018 -0.2997  0.3833 -0.0982
  260DMF     O1 3602   2.306   0.860   3.038  0.2690 -0.1834 -0.0984
  260DMF     H1 3603   2.361   0.971   3.261  0.4807 -1.2538  0.7566
  260DMF     H2 3604   2.526   0.983   3.325  0.4850  0.1617  0.6642
  260DMF     H3 3605   2.454   0.818   3.277 -0.4142  0.0529 -0.3324
  260DMF     H4 3606   2.687   0.893   3.047 -0.3215  0.5194 -0.9613
  260DMF     H5 3607   2.692   1.012   3.170  0.5806 -1.4531 -1.2932
  260DMF     H6 3608   2.643   1.052   2.995  0.6226 -0.5578 -1.6439
  260DMF     H7 3609   2.465   0.914   2.917 -0.3596 -1.2292 -0.3919
  261DMF     C1 3610   3.052   1.870   0.685 -0.2991  0.4353  0.0558
  261DMF     N1 3611   2.922   1.909   0.729  0.3088  0.8640  0.3869
  261DMF     C2 3612   2.813   1.809   0.736 -0.0696 -0.2117 -0.0901
  261DMF     C3 3613   2.902   2.034   0.798 -0.3938  0.6241 -0.6094
  261DMF     O1 3614   2.985   2.121   0.801 -0.1634  0.0045 -0.2692
  261DMF     H1 3615   3.129   1.905   0.754  0.6370 -2.1400  0.3578
  261DMF     H2 3616   3.080   1.905   0.585  2.8631 -0.7182  0.4956
  261DMF     H3 3617   3.052   1.761   0.672  1.2226  0.4417 -0.1079
  261DMF     H4 3618   2.772   1.827   0.836  3.0531 -0.3075  1.2563
  261DMF     H5 3619   2.856   1.708   0.742 -0.1424 -0.3259 -1.3078
  261DMF     H6 3620   2.741   1.812   0.653 -0.5128  4.0904  0.3820
  261DMF     H7 3621   2.815   2.048   0.864  0.7209 -0.7887  1.2001
  262DMF     C1 3622   2.999   1.254   0.636 -0.6017  0.6868 -1.2018
  262DMF     N1 3623   3.105   1.356   0.670 -0.5432 -0.1089 -0.3169
  262DMF     C2 3624   3.066   1.500   0.668 -0.1411  0.6177  0.0992
  262DMF     C3 3625   3.238   1.316   0.681 -0.4963  0.1071  0.5925
  262DMF     O1 3626   3.267   1.202   0.663 -0.5166  0.4985  0.1885
  262DMF     H1 3627   2.967   1.266   0.532 -2.5471 -1.4388 -0.8794
  262DMF     H2 3628   2.913   1.267   0.703 -1.2330  1.4288 -2.1584
  262DMF     H3 3629   3.032   1.149   0.640 -0.6768  0.7286  3.0715
  262DMF     H4 3630   2.966   1.518   0.709  0.1354 -1.7628  1.9506
  262DMF     H5 3631   3.071   1.539   0.566  0.4503 -1.5275 -0.7253
  262DMF     H6 3632   3.136   1.559   0.728  0.9836  0.4265 -1.0153
  262DMF     H7 3633   3.306   1.398   0.712  0.0534  0.3149 -1.0959
  263DMF     C1 3634   2.419   1.448   2.268  0.1249  0.0289 -0.4941
  263DMF     N1 3635   2.555   1.508   2.253  0.4215  0.7715  0.0402
  263DMF     C2 3636   2.666   1.419   2.264  0.3496 -0.4358 -0.0807
  263DMF     C3 3637   2.572   1.643   2.245 -0.0355 -0.4798 -0.5186
  263DMF     O1 3638   2.484   1.725   2.235  0.6769  0.2644  0.1220
  263DMF     H1 3639   2.366   1.445   2.172 -0.8731 -0.4380  0.0692
  263DMF     H2 3640   2.360   1.506   2.340 -0.2161 -0.1989 -0.5885
  263DMF     H3 3641   2.421   1.349   2.314 -3.1833  0.4998  0.7870
  263DMF     H4 3642   2.699   1.393   2.365  0.2299 -2.4627 -0.5397
  263DMF     H5 3643   2.749   1.462   2.207  2.3742 -0.7822  2.5095
  263DMF     H6 3644   2.640   1.328   2.208  0.9534  1.1242 -2.9912
  263DMF     H7 3645   2.678   1.672   2.235 -0.3640  1.5081  1.4210
  264DMF     C1 3646   2.440   0.410   2.610 -0.3176 -0.7192 -0.2174
  264DMF     N1 3647   2.526   0.529   2.630  0.0647 -0.2063  0.2476
  264DMF     C2 3648   2.518   0.600   2.764 -0.8470 -0.0094  0.0884
  264DMF     C3 3649   2.618   0.567   2.531 -0.2912  0.2001 -0.0110
  264DMF     O1 3650   2.642   0.497   2.431 -0.2358  0.5066  0.0635
  264DMF     H1 3651   2.481   0.349   2.529 -1.5995 -0.2259 -1.2544
  264DMF     H2 3652   2.339   0.439   2.579 -0.0558  2.0788  1.2884
  264DMF     H3 3653   2.434   0.365   2.710  2.7662 -1.0390 -0.1486
  264DMF     H4 3654   2.512   0.532   2.849  0.5604 -2.3063 -1.6182
  264DMF     H5 3655   2.431   0.667   2.770  0.3634  1.9845 -3.2459
  264DMF     H6 3656   2.602   0.668   2.782  0.4336 -1.2255 -1.2347
  264DMF     H7 3657   2.678   0.659   2.546  0.4978  0.0121 -1.8661
  265DMF     C1 3658   1.119   1.179   3.179 -0.0180 -0.9102 -0.0065
  265DMF     N1 3659   1.043   1.192   3.300 -0.0509  0.1234  0.2244
  265DMF     C2 3660   0.945   1.307   3.301  0.2234  0.7876 -0.5190
  265DMF     C3 3661   1.082   1.119   3.420 -0.4996  0.4117 -0.1621
  265DMF     O1 3662   1.160   1.029   3.417  0.2674  0.0492 -0.4683
  265DMF     H1 3663   1.141   1.278   3.136 -0.6790 -0.3378  0.9506
  265DMF     H2 3664   1.039   1.124   3.128  0.0026 -1.8123  0.9351
  265DMF     H3 3665   1.216   1.130   3.191  0.4732  0.8110  3.4715
  265DMF     H4 3666   0.991   1.402   3.331  0.4143  0.7983 -0.8366
  265DMF     H5 3667   0.866   1.288   3.374  0.8992  0.7995  0.2291
  265DMF     H6 3668   0.900   1.321   3.202 -0.6183 -1.0336 -0.4109
  265DMF     H7 3669   1.026   1.152   3.509  0.2645  1.1721  0.0480
  266DMF     C1 3670   2.822   3.345   3.172  0.1533 -0.0243 -0.7568
  266DMF     N1 3671   2.691   3.399   3.207  0.4071  0.6500 -0.3377
  266DMF     C2 3672   2.703   3.530   3.265  0.1895 -0.0797 -0.1329
  266DMF     C3 3673   2.565   3.349   3.173 -0.3155  0.6401  0.1035
  266DMF     O1 3674   2.549   3.235   3.133 -0.6518  0.3068 -0.1921
  266DMF     H1 3675   2.837   3.356   3.064 -1.4574  1.3702 -0.8525
  266DMF     H2 3676   2.841   3.246   3.216  2.2306  1.5395  2.0487
  266DMF     H3 3677   2.903   3.406   3.213  0.7266 -0.9910 -0.4188
  266DMF     H4 3678   2.605   3.579   3.279  1.0380  1.5899  0.1016
  266DMF     H5 3679   2.772   3.592   3.207 -0.1546  2.2665  1.8308
  266DMF     H6 3680   2.735   3.527   3.370  3.3397  2.7758 -0.9119
  266DMF     H7 3681   2.494   3.432   3.158 -1.7081 -1.0954 -3.8114
  267DMF     C1 3682   1.499   0.413   3.662 -1.2482 -0.3643 -0.2855
  267DMF     N1 3683   1.491   0.406   3.518  0.0910  0.3713  0.6885
  267DMF     C2 3684   1.356   0.437   3.462 -0.3397  0.1110 -0.0397
  267DMF     C3 3685   1.601   0.417   3.432  0.2306  0.1763  0.2366
  267DMF     O1 3686   1.714   0.446   3.464  0.1524  0.1143  0.2102
  267DMF     H1 3687   1.567   0.338   3.704 -1.4584 -0.8311 -0.7681
  267DMF     H2 3688   1.402   0.394   3.711 -0.3793 -1.3003  1.0929
  267DMF     H3 3689   1.536   0.512   3.689  0.3361 -1.1344  0.4054
  267DMF     H4 3690   1.354   0.388   3.364  0.7419  2.1672 -1.1050
  267DMF     H5 3691   1.354   0.542   3.433 -0.5478  0.4361  1.1339
  267DMF     H6 3692   1.271   0.411   3.527 -2.6689  2.2661 -2.1323
  267DMF     H7 3693   1.573   0.397   3.327  0.9917 -0.7799  0.2094
  268DMF     C1 3694   0.485   2.361   0.015 -0.0101  0.2330 -0.3750
  268DMF     N1 3695   0.386   2.391   0.117  0.2149 -0.2510 -0.2038
  268DMF     C2 3696   0.429   2.411   0.260 -0.1887  0.3037  0.0650
  268DMF     C3 3697   0.246   2.397   0.081 -0.5888  0.3751  0.4638
  268DMF     O1 3698   0.208   2.395  -0.031 -1.0945 -0.1627 -0.3222
  268DMF     H1 3699   0.523   2.262   0.042 -1.4600 -1.2910 -3.7585
  268DMF     H2 3700   0.560   2.440   0.003  0.0509  0.4633  1.4436
  268DMF     H3 3701   0.437   2.366  -0.083  0.1787  0.6343 -0.4483
  268DMF     H4 3702   0.517   2.345   0.267  0.2292  0.6118 -1.9924
  268DMF     H5 3703   0.358   2.377   0.336  0.7167  0.6115  1.0630
  268DMF     H6 3704   0.454   2.516   0.278 -0.9263  0.7520 -1.4586
  268DMF     H7 3705   0.181   2.402   0.171 -0.0134 -1.1215  0.9834
  269DMF     C1 3706   0.111   0.722   2.234 -0.0852  0.3337  0.1006
  269DMF     N1 3707   0.184   0.598   2.225 -0.0172 -0.7446  0.1817
  269DMF     C2 3708   0.335   0.604   2.223  0.3240  0.1212 -0.1021
  269DMF     C3 3709   0.128   0.468   2.222 -0.6390  0.4225  0.2263
  269DMF     O1 3710   0.010   0.447   2.231  0.5593 -0.1601 -0.3833
  269DMF     H1 3711   0.174   0.809   2.253 -3.6315  2.8137  0.8996
  269DMF     H2 3712   0.042   0.701   2.316  3.1726 -0.1186  2.8681
  269DMF     H3 3713   0.043   0.735   2.149  1.3412  0.4972 -1.0284
  269DMF     H4 3714   0.362   0.710   2.221  0.2836  0.2000  2.2213
  269DMF     H5 3715   0.379   0.551   2.138  1.2820 -1.8485  1.5880
  269DMF     H6 3716   0.367   0.568   2.321  2.7078  1.0088 -0.5338
  269DMF     H7 3717   0.204   0.390   2.202  0.3048  1.3146  0.3203
  270DMF     C1 3718   0.464   2.662   3.560  0.5711 -0.1298  0.4954
  270DMF     N1 3719   0.562   2.577   3.489  0.6097  0.1846 -0.3808
  270DMF     C2 3720   0.505   2.464   3.411  0.1093  0.7606 -0.4134
  270DMF     C3 3721   0.703   2.606   3.489  0.8741  0.0080  0.9969
  270DMF     O1 3722   0.749   2.707   3.540 -0.3942  0.2481 -0.0506
  270DMF     H1 3723   0.463   2.645   3.668 -0.2602  2.4739  0.9349
  270DMF     H2 3724   0.361   2.651   3.523  0.6786  3.8488 -1.3160
  270DMF     H3 3725   0.476   2.770   3.543  1.0755 -0.1459  0.7691
  270DMF     H4 3726   0.574   2.432   3.332  1.0323  0.3088  0.5797
  270DMF     H5 3727   0.407   2.485   3.366  0.4616  0.4383 -1.3376
  270DMF     H6 3728   0.495   2.384   3.485  0.1169  1.2531  0.1199
  270DMF     H7 3729   0.759   2.522   3.445 -1.6387 -1.8471  1.2174
  271DMF     C1 3730   2.645   2.122   0.555  0.4102 -0.0396 -0.2149
  271DMF     N1 3731   2.554   2.154   0.442  0.1198  0.7017 -0.0375
  271DMF     C2 3732   2.596   2.256   0.354 -0.4593  0.1364  0.4353
  271DMF     C3 3733   2.440   2.079   0.408  0.3382  0.2940 -0.7142
  271DMF     O1 3734   2.410   1.980   0.478  0.4059 -0.1492 -0.4075
  271DMF     H1 3735   2.681   2.215   0.599 -0.7103  0.9312 -1.2905
  271DMF     H2 3736   2.727   2.054   0.529  2.2472  0.5389  3.7850
  271DMF     H3 3737   2.587   2.080   0.638 -0.2312  4.4843  1.7516
  271DMF     H4 3738   2.642   2.229   0.259 -0.5048 -2.4783  1.1196
  271DMF     H5 3739   2.646   2.334   0.412 -0.0471 -0.3384  0.7188
  271DMF     H6 3740   2.505   2.306   0.317 -0.7663 -1.4565 -0.9945
  271DMF     H7 3741   2.390   2.098   0.311  1.3153  0.7643 -1.1252
  272DMF     C1 3742   1.574   2.822   3.269 -0.3973 -0.1452  0.2549
  272DMF     N1 3743   1.501   2.912   3.356 -0.0958  0.1065 -0.1014
  272DMF     C2 3744   1.368   2.957   3.315  0.3578 -0.0961  0.1487
  272DMF     C3 3745   1.546   2.938   3.485 -0.0862 -1.1013  0.7935
  272DMF     O1 3746   1.646   2.887   3.531  0.7187  0.0778 -0.3775
  272DMF     H1 3747   1.630   2.876   3.192 -1.8664 -1.7297 -1.9548
  272DMF     H2 3748   1.510   2.753   3.215 -1.1061  1.3266 -0.8247
  272DMF     H3 3749   1.644   2.767   3.334  0.3773  0.5469  0.0158
  272DMF     H4 3750   1.297   2.875   3.329  1.2968 -0.6639  1.6892
  272DMF     H5 3751   1.373   2.992   3.211  1.5393 -0.7587 -0.0282
  272DMF     H6 3752   1.339   3.039   3.381 -0.4574  0.4671 -0.9038
  272DMF     H7 3753   1.479   3.005   3.543 -1.4324  0.6602 -2.6348
  273DMF     C1 3754   1.355   0.004   0.312 -0.0807 -0.0496  0.3132
  273DMF     N1 3755   1.444  -0.031   0.199  0.2882 -0.2678 -0.4263
  273DMF     C2 3756   1.451   0.064   0.086 -0.5491 -0.1626 -0.0540
  273DMF     C3 3757   1.517  -0.148   0.197  0.4592 -0.5317  0.2711
  273DMF     O1 3758   1.525  -0.213   0.301 -0.6299 -0.0520  0.7886
  273DMF     H1 3759   1.315  -0.089   0.354 -1.2305  0.6429  0.7881
  273DMF     H2 3760   1.272   0.070   0.284  1.0883  1.5204  0.4137
  273DMF     H3 3761   1.419   0.055   0.386  2.1045 -2.3411  0.0703
  273DMF     H4 3762   1.504   0.017   0.002  1.1581  0.0433  0.8901
  273DMF     H5 3763   1.520   0.142   0.118  0.7136 -0.4060 -2.0801
  273DMF     H6 3764   1.356   0.110   0.057  1.1399  2.9253 -0.8823
  273DMF     H7 3765   1.574  -0.173   0.106  0.0538  0.5770 -0.2934
  274DMF     C1 3766   0.983   0.264   0.806  0.5212  0.6247 -0.3602
  274DMF     N1 3767   1.034   0.180   0.918  0.2896 -0.8509 -0.4157
  274DMF     C2 3768   0.962   0.057   0.950 -0.1636  0.1717  0.2771
  274DMF     C3 3769   1.125   0.222   1.018  0.2551 -0.8952 -0.3284
  274DMF     O1 3770   1.185   0.329   1.018  0.0413  0.3817 -0.8859
  274DMF     H1 3771   0.878   0.289   0.825 -0.0522 -1.8342 -0.2209
  274DMF     H2 3772   0.999   0.215   0.709 -1.2610 -1.1360  0.2329
  274DMF     H3 3773   1.033   0.362   0.813 -1.2814  1.4444  1.2800
  274DMF     H4 3774   0.956   0.006   0.853  0.7228 -0.4734  0.5559
  274DMF     H5 3775   0.864   0.096   0.981  0.3401  1.1236  0.6854
  274DMF     H6 3776   1.010  -0.007   1.025 -0.5253  0.2545  0.5813
  274DMF     H7 3777   1.140   0.142   1.093 -1.3330 -1.6282 -0.7670
  275DMF     C1 3778   3.184   0.570   2.783 -0.6200  0.1781  0.4462
  275DMF     N1 3779   3.158   0.583   2.639 -0.5486 -0.6284  0.0984
  275DMF     C2 3780   3.267   0.547   2.546 -0.9489 -0.2664 -0.5728
  275DMF     C3 3781   3.030   0.614   2.589 -0.1521 -0.2640 -0.7366
  275DMF     O1 3782   2.938   0.631   2.668 -0.0569 -0.2796 -0.0290
  275DMF     H1 3783   3.285   0.550   2.822  0.0396  0.6261 -1.0151
  275DMF     H2 3784   3.115   0.496   2.826  1.3434 -1.2234  1.2842
  275DMF     H3 3785   3.156   0.668   2.823  1.4710  1.2601 -0.6974
  275DMF     H4 3786   3.238   0.586   2.448  2.4738  1.1304 -1.1257
  275DMF     H5 3787   3.290   0.440   2.550  0.8323  0.1771  2.5040
  275DMF     H6 3788   3.356   0.608   2.566  0.0642 -1.5186 -1.1407
  275DMF     H7 3789   3.021   0.614   2.478  0.9493  2.4415 -0.8645
  276DMF     C1 3790   0.607   2.450   1.360  0.5607  0.0148  0.3500
  276DMF     N1 3791   0.518   2.445   1.483 -0.0492 -0.1168  0.6443
  276DMF     C2 3792   0.497   2.573   1.546  0.1173 -0.2038 -0.6588
  276DMF     C3 3793   0.477   2.326   1.535 -0.2268 -0.0817 -0.1747
  276DMF     O1 3794   0.513   2.215   1.486 -0.1472 -0.1018  0.3795
  276DMF     H1 3795   0.710   2.434   1.393  0.5756  0.7077  0.6596
  276DMF     H2 3796   0.599   2.548   1.311 -2.2591 -0.5191 -0.3641
  276DMF     H3 3797   0.584   2.368   1.291 -1.1436  2.4816 -2.1053
  276DMF     H4 3798   0.391   2.602   1.556 -0.7141 -3.5809  0.8538
  276DMF     H5 3799   0.548   2.656   1.495  3.2292 -0.8752  1.2177
  276DMF     H6 3800   0.540   2.567   1.647 -1.7874  0.7398  0.2566
  276DMF     H7 3801   0.407   2.355   1.616 -0.0597  1.7984 -0.6849
  277DMF     C1 3802   0.228   0.372   3.459 -0.0233 -0.1282  0.4649
  277DMF     N1 3803   0.197   0.342   3.314 -0.7478  0.5118  0.4879
  277DMF     C2 3804   0.238   0.208   3.262 -0.1534  0.2246 -0.3410
  277DMF     C3 3805   0.120   0.428   3.235  0.3552  0.4045  0.6705
  277DMF     O1 3806   0.080   0.541   3.267 -0.1794 -0.2313 -0.1911
  277DMF     H1 3807   0.228   0.480   3.475 -1.2157  0.0855 -0.9384
  277DMF     H2 3808   0.328   0.328   3.471 -1.2172 -3.5644 -1.2317
  277DMF     H3 3809   0.167   0.317   3.532  0.2033 -1.6857 -0.4833
  277DMF     H4 3810   0.347   0.200   3.262 -0.3085 -2.1368 -0.2025
  277DMF     H5 3811   0.189   0.191   3.165 -2.9065 -1.0203  1.2077
  277DMF     H6 3812   0.205   0.130   3.331  0.0006  1.5481  1.2540
  277DMF     H7 3813   0.084   0.378   3.143  0.2738  1.6524  0.0212
  278DMF     C1 3814   0.266   1.970   1.558  0.4002  0.5199 -0.2524
  278DMF     N1 3815   0.125   1.992   1.555  0.4310 -0.0985  0.1463
  278DMF     C2 3816   0.037   1.873   1.546  0.3401  0.2781 -0.2055
  278DMF     C3 3817   0.072   2.124   1.555 -0.8001 -0.3034  0.4329
  278DMF     O1 3818   0.140   2.221   1.556 -0.8486 -0.2715  0.6408
  278DMF     H1 3819   0.319   1.953   1.463  0.9073  1.2703 -0.1084
  278DMF     H2 3820   0.283   1.887   1.627 -0.3235 -0.0064 -0.6977
  278DMF     H3 3821   0.325   2.050   1.603  0.0495  1.0054 -0.6566
  278DMF     H4 3822  -0.061   1.907   1.583  0.2918 -0.4583  0.3736
  278DMF     H5 3823   0.068   1.796   1.618  0.0226  0.8932  0.5908
  278DMF     H6 3824   0.032   1.820   1.450 -0.5653  0.9818 -0.5513
  278DMF     H7 3825  -0.039   2.122   1.557 -0.8566  0.9723 -0.6953
  279DMF     C1 3826   0.148   3.360   2.867  0.0102 -0.2343  0.4185
  279DMF     N1 3827   0.068   3.296   2.766  0.0146 -0.5630 -0.2729
  279DMF     C2 3828  -0.032   3.198   2.806 -0.0910 -0.0881  0.0746
  279DMF     C3 3829   0.097   3.314   2.624 -0.0293  0.3533 -0.3326
  279DMF     O1 3830   0.184   3.388   2.586 -0.1364  0.1676  0.2141
  279DMF     H1 3831   0.112   3.382   2.968 -0.6361  0.9850 -0.0683
  279DMF     H2 3832   0.188   3.457   2.837  0.2895 -0.6337 -0.5294
  279DMF     H3 3833   0.235   3.297   2.892  1.3670  1.7465  0.7620
  279DMF     H4 3834  -0.073   3.243   2.897  1.9623  1.4326  0.2770
  279DMF     H5 3835   0.021   3.104   2.830  0.1868  0.1378  0.3467
  279DMF     H6 3836  -0.118   3.196   2.738  0.4409  2.1884 -0.7022
  279DMF     H7 3837   0.036   3.253   2.555  1.0957 -1.9818  0.6740
  280DMF     C1 3838   1.794   2.380   3.138  0.2416  0.2078  0.4127
  280DMF     N1 3839   1.692   2.277   3.172 -0.1756  0.0480  0.0810
  280DMF     C2 3840   1.558   2.297   3.112  0.1363  0.2617 -0.3826
  280DMF     C3 3841   1.717   2.151   3.231 -0.1838 -0.6509  0.5047
  280DMF     O1 3842   1.822   2.126   3.288 -0.5669  0.1880 -0.4687
  280DMF     H1 3843   1.778   2.459   3.213  0.7909 -0.9531  1.7790
  280DMF     H2 3844   1.775   2.413   3.035  1.3759  0.6049  0.3222
  280DMF     H3 3845   1.893   2.337   3.154  1.3376  1.7076 -2.0288
  280DMF     H4 3846   1.561   2.394   3.061  0.3162 -0.2065 -1.2902
  280DMF     H5 3847   1.482   2.302   3.191  1.3515 -0.3413  0.8431
  280DMF     H6 3848   1.526   2.222   3.038  1.9638 -1.2011  0.2599
  280DMF     H7 3849   1.631   2.083   3.218 -0.1068 -0.8822  1.2126
  281DMF     C1 3850   0.681   2.698   3.169  0.0801 -0.0789 -0.3283
  281DMF     N1 3851   0.621   2.819   3.119  0.4349  0.0343 -0.2903
  281DMF     C2 3852   0.561   2.901   3.225  0.2802 -0.8121 -0.0580
  281DMF     C3 3853   0.618   2.858   2.986  0.0576  0.8535  0.7956
  281DMF     O1 3854   0.657   2.782   2.899 -0.0512 -0.4552  0.4801
  281DMF     H1 3855   0.757   2.732   3.241  0.5729 -1.1166 -0.3447
  281DMF     H2 3856   0.730   2.641   3.089  1.0951 -1.1352  1.0224
  281DMF     H3 3857   0.603   2.641   3.221  1.0352 -0.1543  1.0635
  281DMF     H4 3858   0.625   2.985   3.256 -0.1017 -0.7762  0.6551
  281DMF     H5 3859   0.522   2.850   3.314 -0.5637  2.1131  1.3171
  281DMF     H6 3860   0.471   2.950   3.185  1.2221  2.0854  1.2601
  281DMF     H7 3861   0.583   2.959   2.959 -0.5824 -0.1672 -2.4014
  282DMF     C1 3862   1.806   0.199   0.037 -0.6687 -0.5708  0.6675
  282DMF     N1 3863   1.913   0.303   0.022  0.0561 -0.5854 -0.1531
  282DMF     C2 3864   1.876   0.441  -0.006  0.2976  0.0426  0.0600
  282DMF     C3 3865   2.048   0.269   0.048  0.1494  0.1007  0.5720
  282DMF     O1 3866   2.090   0.161   0.075 -0.3158  0.5329  0.3435
  282DMF     H1 3867   1.852   0.103   0.068  1.0571  0.5034  1.5361
  282DMF     H2 3868   1.760   0.183  -0.061  0.1832 -1.0051  0.3358
  282DMF     H3 3869   1.735   0.211   0.120 -0.0700 -3.6603  1.7179
  282DMF     H4 3870   1.962   0.501  -0.037  0.2601  1.0419  1.7977
  282DMF     H5 3871   1.827   0.476   0.086 -0.0511  1.8224 -0.7840
  282DMF     H6 3872   1.804   0.438  -0.088  0.6681  0.1563 -0.2715
  282DMF     H7 3873   2.119   0.354   0.042  0.4765 -0.2065 -0.0028
  283DMF     C1 3874   3.399   0.973   0.087  0.2980 -1.0610  1.0226
  283DMF     N1 3875   3.427   1.013  -0.051 -0.4206  0.3786  0.6206
  283DMF     C2 3876   3.536   0.949  -0.127  0.4902 -0.1461  0.3721
  283DMF     C3 3877   3.355   1.110  -0.114 -0.6648  0.1826  0.3816
  283DMF     O1 3878   3.271   1.177  -0.052  0.5329  0.0077  0.2692
  283DMF     H1 3879   3.462   0.893   0.127 -1.0658 -2.4623  0.4359
  283DMF     H2 3880   3.295   0.941   0.105 -0.1795  0.0877  0.3387
  283DMF     H3 3881   3.414   1.065   0.144  2.2071  0.7221 -2.2236
  283DMF     H4 3882   3.499   0.925  -0.227  0.9920  3.2359 -0.6859
  283DMF     H5 3883   3.563   0.864  -0.063  2.3846  0.9294  1.0265
  283DMF     H6 3884   3.626   1.011  -0.127  0.2861  0.1468  0.3427
  283DMF     H7 3885   3.396   1.139  -0.212  2.7584  2.4380  2.3778
  284DMF     C1 3886   1.173   2.168   2.710  0.0174 -0.0045 -0.3015
  284DMF     N1 3887   1.230   2.244   2.825  0.2217  0.0723 -1.1489
  284DMF     C2 3888   1.239   2.169   2.957 -0.0375  0.0416  0.1649
  284DMF     C3 3889   1.263   2.384   2.820  0.6684  0.4581  0.1735
  284DMF     O1 3890   1.265   2.447   2.715 -0.1764 -0.8028 -0.5211
  284DMF     H1 3891   1.197   2.062   2.717 -0.2989 -0.0293  0.4809
  284DMF     H2 3892   1.228   2.199   2.621  1.4975  0.5174  0.7594
  284DMF     H3 3893   1.064   2.179   2.706 -0.1309 -1.2277  0.2812
  284DMF     H4 3894   1.194   2.227   3.038 -1.4761  1.6329 -1.7419
  284DMF     H5 3895   1.342   2.145   2.988  1.1028  1.4615 -2.3607
  284DMF     H6 3896   1.177   2.079   2.951  1.1083 -0.8463  1.2660
  284DMF     H7 3897   1.271   2.428   2.921  0.0118 -0.3708  0.5996
  285DMF     C1 3898   0.753   1.896   2.667 -0.1888  0.4672  0.3058
  285DMF     N1 3899   0.817   1.818   2.780 -0.0716 -0.1265 -0.1063
  285DMF     C2 3900   0.770   1.678   2.796  0.3334 -0.0419  0.2999
  285DMF     C3 3901   0.898   1.883   2.874  0.2637 -0.3576 -0.1397
  285DMF     O1 3902   0.912   2.004   2.874 -0.7986  0.0106  0.1694
  285DMF     H1 3903   0.812   1.987   2.652  0.7644 -0.1052  0.5571
  285DMF     H2 3904   0.653   1.932   2.695 -0.3534 -1.3477  2.2194
  285DMF     H3 3905   0.740   1.845   2.571  0.9992  1.6789 -0.5198
  285DMF     H4 3906   0.671   1.681   2.843  0.5774  3.0841  0.7176
  285DMF     H5 3907   0.830   1.619   2.866 -2.5366 -0.0550  2.8492
  285DMF     H6 3908   0.765   1.632   2.696  0.2555 -0.5479  0.5342
  285DMF     H7 3909   0.950   1.808   2.936 -0.3667 -0.0931  0.7225
  286DMF     C1 3910   0.042   0.499   0.484 -0.0324 -0.4176 -0.6840
  286DMF     N1 3911  -0.099   0.444   0.475  0.7529 -0.4212 -0.1970
  286DMF     C2 3912  -0.202   0.535   0.521  0.2441 -0.8221 -0.1340
  286DMF     C3 3913  -0.135   0.312   0.451 -0.3638 -0.4872 -0.2330
  286DMF     O1 3914  -0.054   0.223   0.426 -1.0865 -0.5081  0.3546
  286DMF     H1 3915   0.070   0.495   0.590 -2.1365 -0.2089 -0.0948
  286DMF     H2 3916   0.044   0.603   0.449  0.2813  0.2380  1.2497
  286DMF     H3 3917   0.114   0.438   0.429  0.8627  0.1977 -0.2106
  286DMF     H4 3918  -0.185   0.636   0.482  2.1261  0.1417  3.0134
  286DMF     H5 3919  -0.193   0.539   0.630  3.1828  3.4833 -0.3915
  286DMF     H6 3920  -0.302   0.507   0.486 -0.1661 -1.3401  1.4097
  286DMF     H7 3921  -0.243   0.293   0.459 -0.2672 -1.2723 -0.7129
  287DMF     C1 3922   1.207   1.753   3.365  0.5993  0.1323 -0.4920
  287DMF     N1 3923   1.189   1.890   3.319 -0.3089  0.2929 -0.3345
  287DMF     C2 3924   1.277   1.998   3.366  0.0449 -0.7707  0.1604
  287DMF     C3 3925   1.094   1.921   3.221  0.7000  0.2644  0.1333
  287DMF     O1 3926   1.015   1.840   3.176 -0.5290  0.0386 -0.6666
  287DMF     H1 3927   1.156   1.684   3.297 -1.0467 -1.7008  2.4970
  287DMF     H2 3928   1.167   1.751   3.467  0.0376 -0.5863 -0.7268
  287DMF     H3 3929   1.310   1.716   3.375  0.4033 -0.7513 -1.6472
  287DMF     H4 3930   1.356   1.953   3.426 -0.6744  0.6804  2.2617
  287DMF     H5 3931   1.225   2.070   3.431  0.2440 -0.3403 -0.1488
  287DMF     H6 3932   1.316   2.057   3.281 -0.6266 -0.2425  0.2161
  287DMF     H7 3933   1.099   2.023   3.178 -1.0431  0.7081  0.9701
  288DMF     C1 3934   0.758   2.449   2.549  0.5787 -0.1334 -0.5665
  288DMF     N1 3935   0.661   2.339   2.577 -0.0632 -0.1073  0.5312
  288DMF     C2 3936   0.582   2.329   2.706 -0.4592 -0.7120 -0.0958
  288DMF     C3 3937   0.622   2.241   2.477  0.3824  0.6347  0.8249
  288DMF     O1 3938   0.682   2.231   2.370 -0.7170  0.5388 -0.1290
  288DMF     H1 3939   0.857   2.407   2.574  0.2694  0.8318  2.4775
  288DMF     H2 3940   0.750   2.539   2.611 -0.3812 -1.4204  1.2149
  288DMF     H3 3941   0.756   2.481   2.445 -1.6345  0.8827 -0.2334
  288DMF     H4 3942   0.478   2.357   2.686  0.1480  0.1511 -2.2657
  288DMF     H5 3943   0.630   2.403   2.772  0.7832 -1.0921 -0.5619
  288DMF     H6 3944   0.588   2.228   2.748 -0.8481  0.2073  2.2752
  288DMF     H7 3945   0.539   2.176   2.511  0.0300 -0.2765 -1.6254
  289DMF     C1 3946   1.561   0.347   0.679 -0.1940 -0.0697 -0.4047
  289DMF     N1 3947   1.413   0.357   0.701  0.2278  0.4499  0.2903
  289DMF     C2 3948   1.327   0.274   0.616 -0.0022 -0.2630 -0.5528
  289DMF     C3 3949   1.355   0.456   0.781 -0.2648 -0.1699 -0.7630
  289DMF     O1 3950   1.420   0.532   0.847 -0.0153  0.1749  0.1922
  289DMF     H1 3951   1.588   0.242   0.691 -1.5073 -0.2188  1.5110
  289DMF     H2 3952   1.607   0.398   0.765  0.1998  0.2239 -0.7887
  289DMF     H3 3953   1.585   0.387   0.580  1.5958  1.8394  0.7542
  289DMF     H4 3954   1.239   0.333   0.587 -0.7279  0.0436  2.1571
  289DMF     H5 3955   1.298   0.182   0.668  0.7919 -0.3853 -0.3232
  289DMF     H6 3956   1.388   0.234   0.534  0.7276 -2.0395  0.8105
  289DMF     H7 3957   1.245   0.462   0.770 -0.0907  0.4321 -2.1595
  290DMF     C1 3958   2.864   1.507   3.358  0.6288 -0.2701  0.4561
  290DMF     N1 3959   2.999   1.543   3.309 -0.3440  0.1602  0.1403
  290DMF     C2 3960   3.038   1.689   3.317  0.3472  0.7509 -0.3228
  290DMF     C3 3961   3.094   1.446   3.277 -0.4064 -0.4239 -0.2996
  290DMF     O1 3962   3.066   1.332   3.256  0.1559 -0.1679  0.0254
  290DMF     H1 3963   2.814   1.597   3.395  1.6245 -0.7592  3.0639
  290DMF     H2 3964   2.875   1.443   3.446  1.5610  0.1120  0.6248
  290DMF     H3 3965   2.800   1.461   3.282 -1.8702  1.6789  1.3020
  290DMF     H4 3966   3.117   1.697   3.392 -1.7364 -1.1507  2.1590
  290DMF     H5 3967   2.960   1.759   3.349  2.5103  2.0210  2.3202
  290DMF     H6 3968   3.076   1.726   3.221  1.4255  0.6521  0.0564
  290DMF     H7 3969   3.196   1.488   3.265  0.3267 -0.7894  3.9801
  291DMF     C1 3970   2.461   2.203   2.836 -0.2554 -0.5405  0.0919
  291DMF     N1 3971   2.514   2.165   2.703 -0.5199  0.5286  0.5001
  291DMF     C2 3972   2.431   2.205   2.595  0.4910  0.2768  0.0570
  291DMF     C3 3973   2.627   2.089   2.697  0.4836 -0.1482  0.2310
  291DMF     O1 3974   2.678   2.046   2.802  0.1723  0.0943  0.4227
  291DMF     H1 3975   2.381   2.137   2.871  0.0506 -1.4309 -0.8788
  291DMF     H2 3976   2.409   2.300   2.831  0.5267 -0.2325 -3.2459
  291DMF     H3 3977   2.533   2.208   2.918 -1.0218  0.5532  0.7243
  291DMF     H4 3978   2.362   2.126   2.562  0.2736  0.7208 -0.5464
  291DMF     H5 3979   2.494   2.232   2.510 -0.7616 -0.9593 -1.2904
  291DMF     H6 3980   2.370   2.291   2.626 -1.0181 -1.3389  1.7448
  291DMF     H7 3981   2.656   2.054   2.597 -2.5565 -3.9777  0.5930
  292DMF     C1 3982   3.084   0.837   1.018  0.0439 -0.4183 -0.4731
  292DMF     N1 3983   3.172   0.955   1.048 -0.3946  0.3187  0.1757
  292DMF     C2 3984   3.118   1.089   1.031 -0.3621 -0.5396 -0.3338
  292DMF     C3 3985   3.290   0.933   1.119 -0.0894  0.0804  0.2843
  292DMF     O1 3986   3.330   0.822   1.139  0.3486  0.0370  0.8343
  292DMF     H1 3987   2.983   0.863   0.986  0.4374  1.5786 -0.1948
  292DMF     H2 3988   3.071   0.778   1.109 -1.1103 -0.9368 -0.9666
  292DMF     H3 3989   3.121   0.776   0.935 -1.0281 -1.9605  0.1687
  292DMF     H4 3990   3.087   1.130   1.128  2.9865  2.6003 -0.4966
  292DMF     H5 3991   3.027   1.088   0.969 -2.0145  1.9325  1.9488
  292DMF     H6 3992   3.181   1.161   0.977 -0.9869  0.9206  0.8454
  292DMF     H7 3993   3.330   1.028   1.158  0.3697  1.4557 -3.2675
  293DMF     C1 3994   1.648   0.895   2.846 -0.2741 -0.4494  0.1452
  293DMF     N1 3995   1.605   0.998   2.745 -0.0298 -0.3295 -0.2375
  293DMF     C2 3996   1.512   1.098   2.783  0.0976 -0.2898 -0.7987
  293DMF     C3 3997   1.659   1.007   2.617  0.2548 -0.4465 -0.0094
  293DMF     O1 3998   1.742   0.924   2.587 -0.4677  0.1549 -0.0083
  293DMF     H1 3999   1.604   0.914   2.944 -0.1233 -1.2670  0.3741
  293DMF     H2 4000   1.757   0.895   2.858 -0.2657 -0.4791  0.0724
  293DMF     H3 4001   1.624   0.794   2.812 -0.2617  0.1256 -1.6508
  293DMF     H4 4002   1.522   1.125   2.888 -1.0674 -1.9673 -0.2182
  293DMF     H5 4003   1.411   1.056   2.769  1.0740 -3.0971  0.1668
  293DMF     H6 4004   1.523   1.194   2.732  1.4163 -0.1796 -0.2993
  293DMF     H7 4005   1.635   1.103   2.567 -0.2569  0.4873  1.9639
  294DMF     C1 4006   0.675   0.672   3.200 -0.3598 -0.2422  0.8329
  294DMF     N1 4007   0.788   0.729   3.279  0.0282 -0.1109  0.5474
  294DMF     C2 4008   0.917   0.645   3.305  1.2649  0.3211  0.0321
  294DMF     C3 4009   0.772   0.849   3.353 -0.2906 -0.4759  0.1779
  294DMF     O1 4010   0.667   0.910   3.358 -0.1025  0.2239  0.4453
  294DMF     H1 4011   0.578   0.698   3.243 -1.1699 -1.0574 -0.4615
  294DMF     H2 4012   0.679   0.562   3.197 -1.1339 -0.2446 -0.6661
  294DMF     H3 4013   0.682   0.716   3.100  0.1357  1.2805  1.5282
  294DMF     H4 4014   0.940   0.631   3.412  0.0098 -0.0144  0.2640
  294DMF     H5 4015   0.995   0.705   3.257  1.4720 -0.1356 -0.2039
  294DMF     H6 4016   0.913   0.546   3.259  0.0725  1.1762 -1.7420
  294DMF     H7 4017   0.863   0.881   3.409 -1.3627  0.6269  1.3387
  295DMF     C1 4018   2.781   1.154   0.112  0.8621 -0.6849 -0.1561
  295DMF     N1 4019   2.902   1.147   0.018 -0.1765  0.0112  0.3664
  295DMF     C2 4020   2.972   1.273  -0.021 -0.6689  0.2439  0.1040
  295DMF     C3 4021   2.953   1.023  -0.027  0.0633 -0.3343 -0.3593
  295DMF     O1 4022   2.905   0.914   0.007 -0.4250 -0.0722  0.7770
  295DMF     H1 4023   2.766   1.254   0.155  0.4465 -0.1898 -1.4264
  295DMF     H2 4024   2.802   1.086   0.195 -0.9865 -2.9456 -1.5067
  295DMF     H3 4025   2.694   1.120   0.055  1.8520 -2.5567 -0.6060
  295DMF     H4 4026   3.033   1.311   0.062  2.6108 -2.1553 -1.0979
  295DMF     H5 4027   2.910   1.356  -0.058 -0.9575 -0.9436 -2.1161
  295DMF     H6 4028   3.041   1.256  -0.105  0.2356 -0.3892  0.9659
  295DMF     H7 4029   3.051   1.046  -0.075  0.7118  1.8692  1.9024
  296DMF     C1 4030   0.943   2.413   3.126 -0.7067 -0.9674  1.8726
  296DMF     N1 4031   0.954   2.447   2.979 -0.4994 -0.3986  0.4889
  296DMF     C2 4032   0.911   2.353   2.872 -0.5653  0.6604 -0.2402
  296DMF     C3 4033   1.024   2.563   2.935 -0.0631 -0.0217  0.4531
  296DMF     O1 4034   1.066   2.650   3.014  0.0327 -0.0064  0.0205
  296DMF     H1 4035   0.976   2.495   3.191 -1.8050  1.6527 -0.7602
  296DMF     H2 4036   1.022   2.338   3.140  0.9298  0.4080  0.3383
  296DMF     H3 4037   0.850   2.362   3.154 -0.7679 -3.8324 -2.9762
  296DMF     H4 4038   0.958   2.382   2.777 -0.5681 -0.5580 -0.6104
  296DMF     H5 4039   0.802   2.358   2.861 -0.5089  0.1697 -1.0620
  296DMF     H6 4040   0.936   2.251   2.901 -0.9084  0.7750  0.4727
  296DMF     H7 4041   1.019   2.565   2.825 -3.1369 -1.1946  0.5004
  297DMF     C1 4042   2.816   2.557   3.500  0.0157 -0.4459  0.3619
  297DMF     N1 4043   2.852   2.630   3.374  0.3368 -0.2226 -0.5446
  297DMF     C2 4044   2.835   2.778   3.373 -0.3910 -0.0038  0.0403
  297DMF     C3 4045   2.892   2.563   3.259 -0.0177 -0.3997  0.5058
  297DMF     O1 4046   2.896   2.441   3.251  1.2375 -0.3305  0.8955
  297DMF     H1 4047   2.873   2.602   3.582 -0.4925  0.7403  0.0621
  297DMF     H2 4048   2.848   2.452   3.491  0.2312 -0.2799 -0.8758
  297DMF     H3 4049   2.708   2.567   3.514  0.2382  1.2878  0.9114
  297DMF     H4 4050   2.746   2.799   3.435 -0.0095 -3.2805  1.8138
  297DMF     H5 4051   2.822   2.828   3.277 -1.1629  1.3311  0.8238
  297DMF     H6 4052   2.935   2.805   3.408 -0.9916  0.3590  1.5333
  297DMF     H7 4053   2.903   2.627   3.169  1.3040 -0.6747  0.4652
  298DMF     C1 4054   1.248   0.452   0.296 -0.3495 -0.0339 -0.0873
  298DMF     N1 4055   1.381   0.509   0.326 -0.2261 -0.1400  0.5999
  298DMF     C2 4056   1.395   0.595   0.449  0.5812  0.2883  0.2765
  298DMF     C3 4057   1.498   0.462   0.260 -0.3135  0.4372 -0.4333
  298DMF     O1 4058   1.499   0.390   0.164  0.6776  0.2466 -0.2043
  298DMF     H1 4059   1.239   0.369   0.367  1.9519  0.9720  1.4208
  298DMF     H2 4060   1.241   0.419   0.191  1.7100  0.1433 -0.3031
  298DMF     H3 4061   1.169   0.523   0.325  0.1494 -0.1885  1.7045
  298DMF     H4 4062   1.318   0.561   0.520 -0.5957  1.4894 -0.4152
  298DMF     H5 4063   1.358   0.693   0.417 -1.1373 -0.1435  0.8514
  298DMF     H6 4064   1.494   0.599   0.497  0.6852 -2.0789  0.3552
  298DMF     H7 4065   1.593   0.505   0.298  0.1318 -1.1099  0.2582
  299DMF     C1 4066   2.566   2.347   3.195  0.1963 -0.4875  0.0239
  299DMF     N1 4067   2.423   2.390   3.173 -0.2788 -0.3978  0.1390
  299DMF     C2 4068   2.319   2.313   3.245 -0.1021 -0.5876  0.3626
  299DMF     C3 4069   2.393   2.518   3.116 -0.3822  0.1632  0.0111
  299DMF     O1 4070   2.477   2.578   3.056  1.1008 -0.4964 -0.2647
  299DMF     H1 4071   2.638   2.428   3.216  0.0207 -0.3214 -0.0120
  299DMF     H2 4072   2.596   2.292   3.105  0.3004  0.4598 -0.5363
  299DMF     H3 4073   2.564   2.279   3.280  0.0709  0.4694  0.7972
  299DMF     H4 4074   2.268   2.388   3.307 -0.5275  0.3257 -1.0624
  299DMF     H5 4075   2.362   2.228   3.300  1.2950  0.6738  1.2766
  299DMF     H6 4076   2.253   2.277   3.166 -1.7989 -2.7962  2.7189
  299DMF     H7 4077   2.286   2.546   3.125 -0.1110  0.7343  1.5230
  300DMF     C1 4078   0.329   0.745   3.117  0.2905 -0.3344  0.5167
  300DMF     N1 4079   0.336   0.840   3.225 -0.0591  0.6780 -0.0458
  300DMF     C2 4080   0.325   0.798   3.371  0.6276  0.9108  0.2778
  300DMF     C3 4081   0.350   0.974   3.198  0.0263 -0.2184  0.0146
  300DMF     O1 4082   0.377   1.020   3.085  0.2620 -0.0733 -0.0918
  300DMF     H1 4083   0.305   0.646   3.159 -0.8147  0.0400  0.7927
  300DMF     H2 4084   0.421   0.739   3.059 -1.3851 -1.8188 -2.0868
  300DMF     H3 4085   0.263   0.779   3.036 -0.8866 -1.1331  1.1201
  300DMF     H4 4086   0.361   0.697   3.391  0.1346  0.3932 -1.3456
  300DMF     H5 4087   0.217   0.791   3.392  0.8129  0.2645  1.0073
  300DMF     H6 4088   0.383   0.862   3.437  0.4982  1.3789 -0.0563
  300DMF     H7 4089   0.332   1.032   3.290 -1.1057 -1.1425  0.3801
  301DMF     C1 4090   2.993   3.312   0.607 -0.2428 -0.0055  0.0707
  301DMF     N1 4091   3.000   3.348   0.472  0.0948 -0.8135 -0.9680
  301DMF     C2 4092   3.101   3.446   0.437 -0.3847 -0.4019  0.1055
  301DMF     C3 4093   2.902   3.306   0.376  0.6127  0.4974  0.5379
  301DMF     O1 4094   2.811   3.230   0.400  0.1129  0.6491 -0.5065
  301DMF     H1 4095   2.963   3.206   0.608 -2.1964  0.5241 -0.4180
  301DMF     H2 4096   2.919   3.376   0.657 -0.7247 -1.1708  0.8787
  301DMF     H3 4097   3.092   3.312   0.654  0.2116  0.0155 -0.8769
  301DMF     H4 4098   3.084   3.542   0.487  1.5219 -1.4331  2.8591
  301DMF     H5 4099   3.117   3.458   0.329 -1.5864 -2.7669 -0.3803
  301DMF     H6 4100   3.193   3.410   0.483  0.8194  3.5412  0.9240
  301DMF     H7 4101   2.910   3.358   0.279 -1.4860 -0.1727 -0.0280
  302DMF     C1 4102   2.200   0.196   3.526 -0.1470 -0.4685  0.7460
  302DMF     N1 4103   2.069   0.260   3.513  0.1302  0.5449 -0.1276
  302DMF     C2 4104   1.959   0.168   3.496  0.5074 -0.0971  0.0280
  302DMF     C3 4105   2.055   0.389   3.468  0.3414 -0.0299  0.0998
  302DMF     O1 4106   2.145   0.470   3.462 -0.2040  0.1792 -0.4196
  302DMF     H1 4107   2.268   0.266   3.575 -1.6464  1.3851  0.2254
  302DMF     H2 4108   2.232   0.165   3.425 -0.9800  0.6000  0.1479
  302DMF     H3 4109   2.197   0.111   3.595  0.3211  0.5435  2.0135
  302DMF     H4 4110   1.967   0.097   3.580  0.2642  0.8246  0.8494
  302DMF     H5 4111   1.966   0.105   3.407  1.5903 -2.4174  1.7126
  302DMF     H6 4112   1.859   0.211   3.509  0.4437 -0.3802  0.4926
  302DMF     H7 4113   1.956   0.427   3.437  1.1900  0.4930 -2.0395
  303DMF     C1 4114   3.390   3.114   0.133 -0.5563  0.4139 -0.1181
  303DMF     N1 4115   3.363   3.194   0.253  0.1826 -0.0999 -0.7111
  303DMF     C2 4116   3.321   3.132   0.381  0.0438 -0.6408  0.0027
  303DMF     C3 4117   3.392   3.335   0.242  0.0062  0.0883  0.1411
  303DMF     O1 4118   3.457   3.376   0.148 -1.0413  0.0491 -0.1318
  303DMF     H1 4119   3.419   3.182   0.052 -1.7779  1.3206  0.1731
  303DMF     H2 4120   3.318   3.035   0.107  0.2297 -0.2431 -0.3078
  303DMF     H3 4121   3.481   3.057   0.153 -2.1104 -2.4215 -0.7937
  303DMF     H4 4122   3.212   3.114   0.377 -0.3046  1.2293  0.7328
  303DMF     H5 4123   3.344   3.196   0.466 -2.1118  1.9396 -1.2726
  303DMF     H6 4124   3.373   3.038   0.405  0.2713  0.7082  5.2585
  303DMF     H7 4125   3.367   3.395   0.331  2.3739  2.2310 -0.5911
  304DMF     C1 4126   1.429   1.915   2.820 -0.0651 -0.4050  0.3150
  304DMF     N1 4127   1.519   1.993   2.737 -0.3802  0.2599  0.6996
  304DMF     C2 4128   1.477   2.003   2.591  0.3567 -0.1809  0.0684
  304DMF     C3 4129   1.645   2.023   2.778 -0.5954 -0.2919  0.1589
  304DMF     O1 4130   1.688   1.980   2.891  0.3438 -0.1496 -0.3528
  304DMF     H1 4131   1.325   1.909   2.785  1.0384  0.7168 -3.3296
  304DMF     H2 4132   1.427   1.953   2.923  1.7229  3.0756 -0.8499
  304DMF     H3 4133   1.466   1.812   2.815 -0.9610 -0.7503  0.5751
  304DMF     H4 4134   1.376   1.973   2.562  0.1358 -0.8328  1.4454
  304DMF     H5 4135   1.541   1.946   2.523  0.1591 -0.6893  0.3057
  304DMF     H6 4136   1.480   2.109   2.565  1.4595 -0.5410 -1.3104
  304DMF     H7 4137   1.700   2.069   2.694 -1.2541  1.5832  0.7347
  305DMF     C1 4138   1.209   3.119   2.255 -0.4165  0.1213  0.3784
  305DMF     N1 4139   1.063   3.128   2.268  0.9670  0.2301  0.0600
  305DMF     C2 4140   0.995   3.006   2.306  0.3895 -0.4224  0.1512
  305DMF     C3 4141   0.992   3.251   2.244 -0.0676 -0.0801  0.4795
  305DMF     O1 4142   1.047   3.365   2.233 -0.4934  0.4176 -0.1333
  305DMF     H1 4143   1.242   3.201   2.190 -0.3829  0.9252  1.3973
  305DMF     H2 4144   1.248   3.023   2.218  0.4701  1.3046 -1.8625
  305DMF     H3 4145   1.253   3.127   2.355  0.2595 -3.5469  0.4661
  305DMF     H4 4146   0.915   3.044   2.370  0.7878 -2.1451  1.7088
  305DMF     H5 4147   1.060   2.940   2.365  1.4009 -0.0287 -0.5127
  305DMF     H6 4148   0.960   2.947   2.220  1.2232 -2.8852  1.4392
  305DMF     H7 4149   0.883   3.239   2.234  0.0581 -0.3587 -0.6797
  306DMF     C1 4150   1.822   1.017   3.705  0.7082 -0.1342 -0.1501
  306DMF     N1 4151   1.851   0.879   3.760  0.1207  0.0771  0.4158
  306DMF     C2 4152   1.991   0.835   3.757  0.5542 -0.4593  0.0615
  306DMF     C3 4153   1.746   0.795   3.799 -0.7090 -0.0169 -0.5542
  306DMF     O1 4154   1.630   0.827   3.798 -1.4031 -0.0205 -0.1724
  306DMF     H1 4155   1.912   1.058   3.657  2.1863 -1.1679  1.6594
  306DMF     H2 4156   1.798   1.091   3.782  0.4496  0.6957 -1.0075
  306DMF     H3 4157   1.739   1.017   3.634  0.4148 -1.1837  0.1918
  306DMF     H4 4158   2.025   0.815   3.859  1.8154 -1.3957 -0.5331
  306DMF     H5 4159   2.052   0.911   3.707  0.2111  0.7688  1.4619
  306DMF     H6 4160   2.003   0.740   3.704 -0.0276 -0.1381 -0.6538
  306DMF     H7 4161   1.775   0.692   3.826  0.8927  0.2498 -1.1846
  307DMF     C1 4162   1.013   1.383   0.616 -0.1597 -0.6800  0.0846
  307DMF     N1 4163   1.098   1.503   0.627  0.4278  0.2286 -0.7310
  307DMF     C2 4164   1.196   1.497   0.741 -0.0293  0.0137 -0.1734
  307DMF     C3 4165   1.047   1.625   0.574  0.3447  0.2030  0.6837
  307DMF     O1 4166   0.948   1.629   0.502 -0.2472  0.5046 -0.3748
  307DMF     H1 4167   1.092   1.308   0.603  1.0356  0.4886  0.4384
  307DMF     H2 4168   0.935   1.384   0.539  0.4706  1.0083 -0.5569
  307DMF     H3 4169   0.968   1.357   0.712 -0.6493 -0.8832 -0.2003
  307DMF     H4 4170   1.158   1.441   0.828 -3.6245  1.2797 -0.8469
  307DMF     H5 4171   1.214   1.601   0.773 -0.4794 -0.0432  0.2827
  307DMF     H6 4172   1.293   1.461   0.705  1.2771  2.8330  0.3930
  307DMF     H7 4173   1.099   1.715   0.611  0.2813 -0.0533  1.4165
   3.40320   3.43847   3.80000
