;
;   File molecule.top  was generated
;   By user: mattiaapicella (501)
;   On host:Mattias-MacBook-Pro.local 
;   At date:Tue. October  2 04:22:23 2026 
;
;   This is a standalone topology file
;
;   Created by:
;   ParmEd:       -c, VERSION4.3.1 
;   Executable:   -c
;   Library dir:  /usr/local/gromacs/share/gromacs/top
;   Command line:
;     -c
;

[ defaults ]
; nbfunc        comb-rule       gen-pairs       fudgeLJ fudgeQQ
1               2               yes             0.5          0.83333333  

[ atomtypes ]
; name    at.num    mass    charge ptype  sigma      epsilon
c5             6  12.010000  0.00000000  A     0.33977095      0.4510352
os             8  16.000000  0.00000000  A     0.31560978      0.3037584
hc             1   1.008000  0.00000000  A      0.2600177      0.0870272
h1             1   1.008000  0.00000000  A     0.24219973      0.0870272


[ moleculetype ]
; Name            nrexcl
THF          3

[ atoms ]
;   nr       type  resnr residue  atom   cgnr    charge       mass  typeB    chargeB      massB
; residue    1 THF rtp THF q -0.0
    1         c5      1    THF     C1      1 -0.10640000  12.010000   ; qtot -0.106400
    2         c5      1    THF     C2      2 -0.10640000  12.010000   ; qtot -0.212800
    3         c5      1    THF     C3      3 0.12740000  12.010000   ; qtot -0.085400
    4         os      1    THF     O1      4 -0.42760000  16.000000   ; qtot -0.513000
    5         c5      1    THF     C4      5 0.12740000  12.010000   ; qtot -0.385600
    6         hc      1    THF     H1      6 0.05170000   1.008000   ; qtot -0.333900
    7         hc      1    THF     H2      7 0.05170000   1.008000   ; qtot -0.282200
    8         hc      1    THF     H3      8 0.05170000   1.008000   ; qtot -0.230500
    9         hc      1    THF     H4      9 0.05170000   1.008000   ; qtot -0.178800
   10         h1      1    THF     H5     10 0.04470000   1.008000   ; qtot -0.134100
   11         h1      1    THF     H6     11 0.04470000   1.008000   ; qtot -0.089400
   12         h1      1    THF     H7     12 0.04470000   1.008000   ; qtot -0.044700
   13         h1      1    THF     H8     13 0.04470000   1.008000   ; qtot -0.000000

[ bonds ]
;    ai     aj funct         c0         c1         c2         c3
      1      2     1   0.15483 184179.680000
      1      5     1   0.15483 184179.680000
      2      3     1   0.15483 184179.680000
      3      4     1   0.14346 230630.448000
      4      5     1   0.14346 230630.448000
      1      6     1   0.10954 289892.624000
      1      7     1   0.10954 289892.624000
      2      8     1   0.10954 289892.624000
      2      9     1   0.10954 289892.624000
      3     10     1   0.10972 287675.104000
      3     11     1   0.10972 287675.104000
      5     12     1   0.10972 287675.104000
      5     13     1   0.10972 287675.104000

[ pairs ]
;    ai     aj funct         c0         c1         c2         c3
      1     10     1
      1     11     1
      2     12     1
      2     13     1
      6      3     1
      7      3     1
      3     12     1
      3     13     1
      4      8     1
      4      9     1
      6      4     1
      7      4     1
      5     10     1
      5     11     1
      5      8     1
      5      9     1
      6      8     1
      6      9     1
      6     12     1
      6     13     1
      7      8     1
      7      9     1
      7     12     1
      7     13     1
      8     10     1
      8     11     1
      9     10     1
      9     11     1

[ angles ]
;    ai     aj     ak funct         c0         c1         c2         c3
      1      2      3     1   103.8300446 517.477120
      1      5      4     1   106.1400454 647.934240
      2      1      5     1   103.8300446 517.477120
      2      3      4     1   106.1400454 647.934240
      3      4      5     1   109.2600469 749.856480
      1      2      8     1   111.1700476 356.895200
      1      2      9     1   111.1700476 356.895200
      1      5     12     1   111.1700476 356.895200
      1      5     13     1   111.1700476 356.895200
      2      1      6     1   111.1700476 356.895200
      2      1      7     1   111.1700476 356.895200
      2      3     10     1   111.1700476 356.895200
      2      3     11     1   111.1700476 356.895200
      3      2      8     1   111.1700476 356.895200
      3      2      9     1   111.1700476 356.895200
      4      3     10     1   108.4600466 472.289920
      4      3     11     1   108.4600466 472.289920
      4      5     12     1   108.4600466 472.289920
      4      5     13     1   108.4600466 472.289920
      5      1      6     1   111.1700476 356.895200
      5      1      7     1   111.1700476 356.895200
      6      1      7     1   107.2200462 300.494880
      8      2      9     1   107.2200462 300.494880
     10      3     11     1   108.1300464 298.737600
     12      5     13     1   108.1300464 298.737600

[ dihedrals ]
;    ai     aj     ak     al funct         c0         c1         c2         c3         c4         c5
      1      2      3      4     1  0.0000000  0.6508444  3
      1      5      4      3     1  180.0000771  3.6819200  1
      1      5      4      3     1  0.0000000  0.3347200  2
      1      5      4      3     1  0.0000000  3.1380000  3
      2      1      5      4     1  0.0000000  0.6508444  3
      2      3      4      5     1  180.0000771  3.6819200  1
      2      3      4      5     1  0.0000000  0.3347200  2
      2      3      4      5     1  0.0000000  3.1380000  3
      5      1      2      3     1  0.0000000  2.1756800  3
      1      2      3     10     1  0.0000000  0.6508444  3
      1      2      3     11     1  0.0000000  0.6508444  3
      2      1      5     12     1  0.0000000  0.6508444  3
      2      1      5     13     1  0.0000000  0.6508444  3
      6      1      2      3     1  0.0000000  0.5439200  3
      7      1      2      3     1  0.0000000  0.5439200  3
      3      4      5     12     1  0.0000000  1.4100080  3
      3      4      5     13     1  0.0000000  1.4100080  3
      4      3      2      8     1  0.0000000  1.0460000  1
      4      3      2      8     1  0.0000000  0.0000000  3
      4      3      2      9     1  0.0000000  1.0460000  1
      4      3      2      9     1  0.0000000  0.0000000  3
      6      1      5      4     1  0.0000000  1.0460000  1
      6      1      5      4     1  0.0000000  0.0000000  3
      7      1      5      4     1  0.0000000  1.0460000  1
      7      1      5      4     1  0.0000000  0.0000000  3
      5      4      3     10     1  0.0000000  1.4100080  3
      5      4      3     11     1  0.0000000  1.4100080  3
      5      1      2      8     1  0.0000000  0.5439200  3
      5      1      2      9     1  0.0000000  0.5439200  3
      6      1      2      8     1  0.0000000  0.5020800  3
      6      1      2      9     1  0.0000000  0.5020800  3
      6      1      5     12     1  0.0000000  0.6508444  3
      6      1      5     13     1  0.0000000  0.6508444  3
      7      1      2      8     1  0.0000000  0.5020800  3
      7      1      2      9     1  0.0000000  0.5020800  3
      7      1      5     12     1  0.0000000  0.6508444  3
      7      1      5     13     1  0.0000000  0.6508444  3
      8      2      3     10     1  0.0000000  0.6508444  3
      8      2      3     11     1  0.0000000  0.6508444  3
      9      2      3     10     1  0.0000000  0.6508444  3
      9      2      3     11     1  0.0000000  0.6508444  3

[ system ]
; Name
Generic title

[ molecules ]
; Compound       #mols
THF                  1
