%VERSION  VERSION_STAMP = V0001.000  DATE = 10/06/26  04:22:21                  
%FLAG TITLE                                                                     
%FORMAT(20a4)                                                                   
THF                                                                             
%FLAG POINTERS                                                                  
%FORMAT(10I8)                                                                   
      13       4       8       5      20       5      32       9       0       0
      68       1       5       5       9       4       8      10       4       0
       0       0       0       0       0       0       0       0      13       0
       0
%FLAG ATOM_NAME                                                                 
%FORMAT(20a4)                                                                   
C1  C2  C3  O1  C4  H1  H2  H3  H4  H5  H6  H7  H8  
%FLAG CHARGE                                                                    
%FORMAT(5E16.8)                                                                 
 -1.93885272E+00 -1.93885272E+00  2.32152102E+00 -7.79185548E+00  2.32152102E+00
  9.42092910E-01  9.42092910E-01  9.42092910E-01  9.42092910E-01  8.14536810E-01
  8.14536810E-01  8.14536810E-01  8.14536810E-01
%FLAG ATOMIC_NUMBER                                                             
%FORMAT(10I8)                                                                   
       6       6       6       8       6       1       1       1       1       1
       1       1       1
%FLAG MASS                                                                      
%FORMAT(5E16.8)                                                                 
  1.20100000E+01  1.20100000E+01  1.20100000E+01  1.60000000E+01  1.20100000E+01
  1.00800000E+00  1.00800000E+00  1.00800000E+00  1.00800000E+00  1.00800000E+00
  1.00800000E+00  1.00800000E+00  1.00800000E+00
%FLAG ATOM_TYPE_INDEX                                                           
%FORMAT(10I8)                                                                   
       1       1       1       2       1       3       3       3       3       4
       4       4       4
%FLAG NUMBER_EXCLUDED_ATOMS                                                     
%FORMAT(10I8)                                                                   
      12      11      10       9       8       5       4       3       2       1
       1       1       1
%FLAG NONBONDED_PARM_INDEX                                                      
%FORMAT(10I8)                                                                   
       1       2       4       7       2       3       5       8       4       5
       6       9       7       8       9      10
%FLAG RESIDUE_LABEL                                                             
%FORMAT(20a4)                                                                   
THF 
%FLAG RESIDUE_POINTER                                                           
%FORMAT(10I8)                                                                   
       1
%FLAG BOND_FORCE_CONSTANT                                                       
%FORMAT(5E16.8)                                                                 
  2.20100000E+02  3.46430000E+02  2.75610000E+02  3.43780000E+02
%FLAG BOND_EQUIL_VALUE                                                          
%FORMAT(5E16.8)                                                                 
  1.54830000E+00  1.09540000E+00  1.43460000E+00  1.09720000E+00
%FLAG ANGLE_FORCE_CONSTANT                                                      
%FORMAT(5E16.8)                                                                 
  6.18400000E+01  4.26500000E+01  7.74300000E+01  4.26500000E+01  8.96100000E+01
  5.64400000E+01  3.59100000E+01  3.57000000E+01
%FLAG ANGLE_EQUIL_VALUE                                                         
%FORMAT(5E16.8)                                                                 
  1.81217614E+00  1.94028336E+00  1.85249326E+00  1.94028336E+00  1.90694756E+00
  1.89298492E+00  1.87134283E+00  1.88722533E+00
%FLAG DIHEDRAL_FORCE_CONSTANT                                                   
%FORMAT(5E16.8)                                                                 
  1.55555556E-01  8.80000000E-01  8.00000000E-02  7.50000000E-01  5.20000000E-01
  1.30000000E-01  3.37000000E-01  2.50000000E-01  0.00000000E+00  1.20000000E-01
%FLAG DIHEDRAL_PERIODICITY                                                      
%FORMAT(5E16.8)                                                                 
  3.00000000E+00  1.00000000E+00  2.00000000E+00  3.00000000E+00  3.00000000E+00
  3.00000000E+00  3.00000000E+00  1.00000000E+00  3.00000000E+00  3.00000000E+00
%FLAG DIHEDRAL_PHASE                                                            
%FORMAT(5E16.8)                                                                 
  0.00000000E+00  3.14159400E+00  0.00000000E+00  0.00000000E+00  0.00000000E+00
  0.00000000E+00  0.00000000E+00  0.00000000E+00  0.00000000E+00  0.00000000E+00
%FLAG SCEE_SCALE_FACTOR                                                         
%FORMAT(5E16.8)                                                                 
  1.20000000E+00  1.20000000E+00  1.20000000E+00  1.20000000E+00  1.20000000E+00
  1.20000000E+00  1.20000000E+00  1.20000000E+00  1.20000000E+00  1.20000000E+00
%FLAG SCNB_SCALE_FACTOR                                                         
%FORMAT(5E16.8)                                                                 
  2.00000000E+00  2.00000000E+00  2.00000000E+00  2.00000000E+00  2.00000000E+00
  2.00000000E+00  2.00000000E+00  2.00000000E+00  2.00000000E+00  2.00000000E+00
%FLAG SOLTY                                                                     
%FORMAT(5E16.8)                                                                 
  0.00000000E+00  0.00000000E+00  0.00000000E+00  0.00000000E+00
%FLAG LENNARD_JONES_ACOEF                                                       
%FORMAT(5E16.8)                                                                 
  1.02073671E+06  5.42502534E+05  2.83662575E+05  1.00235148E+05  5.02224902E+04
  7.94617769E+03  6.97998263E+04  3.44374471E+04  5.22955465E+03  3.39005767E+03
%FLAG LENNARD_JONES_BCOEF                                                       
%FORMAT(5E16.8)                                                                 
  6.63431737E+02  4.38146883E+02  2.87011518E+02  1.37787728E+02  8.83545880E+01
  2.57122925E+01  1.14981426E+02  7.31636661E+01  2.08590256E+01  1.67944276E+01
%FLAG BONDS_INC_HYDROGEN                                                        
%FORMAT(10I8)                                                                   
       0      15       2       0      18       2       3      21       2       3
      24       2       6      27       4       6      30       4      12      33
       4      12      36       4
%FLAG BONDS_WITHOUT_HYDROGEN                                                    
%FORMAT(10I8)                                                                   
       0       3       1       0      12       1       3       6       1       6
       9       3       9      12       3
%FLAG ANGLES_INC_HYDROGEN                                                       
%FORMAT(10I8)                                                                   
       0       3      21       2       0       3      24       2       0      12
      33       4       0      12      36       4       3       0      15       2
       3       0      18       2       3       6      27       4       3       6
      30       4       6       3      21       2       6       3      24       2
       9       6      27       6       9       6      30       6       9      12
      33       6       9      12      36       6      12       0      15       2
      12       0      18       2      15       0      18       7      21       3
      24       7      27       6      30       8      33      12      36       8
%FLAG ANGLES_WITHOUT_HYDROGEN                                                   
%FORMAT(10I8)                                                                   
       0       3       6       1       0      12       9       3       3       0
      12       1       3       6       9       3       6       9      12       5
%FLAG DIHEDRALS_INC_HYDROGEN                                                    
%FORMAT(10I8)                                                                   
       0       3       6      27       1       0       3       6      30       1
       3       0      12      33       1       3       0      12      36       1
      15       0       3       6       6      18       0       3       6       6
       6       9      12      33       7       6       9      12      36       7
       9       6       3      21       8       9       6      -3      21       9
       9       6       3      24       8       9       6      -3      24       9
      15       0      12       9       8      15       0     -12       9       9
      18       0      12       9       8      18       0     -12       9       9
      12       9       6      27       7      12       9       6      30       7
      12       0       3      21       6      12       0       3      24       6
      15       0       3      21      10      15       0       3      24      10
      15       0      12      33       1      15       0      12      36       1
      18       0       3      21      10      18       0       3      24      10
      18       0      12      33       1      18       0      12      36       1
      21       3       6      27       1      21       3       6      30       1
      24       3       6      27       1      24       3       6      30       1
%FLAG DIHEDRALS_WITHOUT_HYDROGEN                                                
%FORMAT(10I8)                                                                   
       0       3      -6       9       1       0      12      -9       6       2
       0      12      -9       6       3       0      12      -9       6       4
       3       0     -12       9       1       3       6      -9      12       2
       3       6      -9      12       3       3       6      -9      12       4
      12       0      -3       6       5
%FLAG EXCLUDED_ATOMS_LIST                                                       
%FORMAT(10I8)                                                                   
       2       3       4       5       6       7       8       9      10      11
      12      13       3       4       5       6       7       8       9      10
      11      12      13       4       5       6       7       8       9      10
      11      12      13       5       6       7       8       9      10      11
      12      13       6       7       8       9      10      11      12      13
       7       8       9      12      13       8       9      12      13       9
      10      11      10      11      11       0      13       0
%FLAG HBOND_ACOEF                                                               
%FORMAT(5E16.8)                                                                 

%FLAG HBOND_BCOEF                                                               
%FORMAT(5E16.8)                                                                 

%FLAG HBCUT                                                                     
%FORMAT(5E16.8)                                                                 

%FLAG AMBER_ATOM_TYPE                                                           
%FORMAT(20a4)                                                                   
c5  c5  c5  os  c5  hc  hc  hc  hc  h1  h1  h1  h1  
%FLAG TREE_CHAIN_CLASSIFICATION                                                 
%FORMAT(20a4)                                                                   
BLA BLA BLA BLA BLA BLA BLA BLA BLA BLA BLA BLA BLA 
%FLAG JOIN_ARRAY                                                                
%FORMAT(10I8)                                                                   
       0       0       0       0       0       0       0       0       0       0
       0       0       0
%FLAG IROTAT                                                                    
%FORMAT(10I8)                                                                   
       0       0       0       0       0       0       0       0       0       0
       0       0       0
%FLAG RADIUS_SET                                                                
%FORMAT(1a80)                                                                   
modified Bondi radii (mbondi)                                                   
%FLAG RADII                                                                     
%FORMAT(5E16.8)                                                                 
  1.70000000E+00  1.70000000E+00  1.70000000E+00  1.50000000E+00  1.70000000E+00
  1.30000000E+00  1.30000000E+00  1.30000000E+00  1.30000000E+00  1.30000000E+00
  1.30000000E+00  1.30000000E+00  1.30000000E+00
%FLAG SCREEN                                                                    
%FORMAT(5E16.8)                                                                 
  7.20000000E-01  7.20000000E-01  7.20000000E-01  8.50000000E-01  7.20000000E-01
  8.50000000E-01  8.50000000E-01  8.50000000E-01  8.50000000E-01  8.50000000E-01
  8.50000000E-01  8.50000000E-01  8.50000000E-01
%FLAG IPOL                                                                      
%FORMAT(1I8)                                                                    
       0
