GROningen MAchine for Chemical Simulation
   13
    1THF     C1    1   0.051   0.093  -0.019
    1THF     C2    2  -0.073   0.051   0.060
    1THF     C3    3  -0.103  -0.086  -0.001
    1THF     O1    4   0.022  -0.141  -0.040
    1THF     C4    5   0.123  -0.041  -0.035
    1THF     H1    6   0.022   0.133  -0.117
    1THF     H2    7   0.112   0.167   0.032
    1THF     H3    8  -0.157   0.120   0.049
    1THF     H4    9  -0.049   0.042   0.166
    1THF     H5   10  -0.150  -0.155   0.070
    1THF     H6   11  -0.167  -0.076  -0.089
    1THF     H7   12   0.188  -0.060   0.051
    1THF     H8   13   0.182  -0.047  -0.126
   0.85490   0.82160   0.79210
