THF
    13
   0.5060000   0.9320000  -0.1900000  -0.7340000   0.5140000   0.5980000
  -1.0260000  -0.8590000  -0.0070000   0.2220000  -1.4100000  -0.3980000
   1.2250000  -0.4080000  -0.3500000   0.2180000   1.3250000  -1.1660000
   1.1160000   1.6700000   0.3240000  -1.5690000   1.2010000   0.4850000
  -0.4930000   0.4170000   1.6570000  -1.5040000  -1.5460000   0.6960000
  -1.6670000  -0.7650000  -0.8950000   1.8820000  -0.6020000   0.5100000
   1.8220000  -0.4690000  -1.2640000
